
variable      mytemp equal  2000
# ------------------- Configuration ---------------------
read_data	CrO.dat
  orthogonal box = (0 0 0) to (77.301 89.2602 81.5585)
  1 by 5 by 3 MPI processor grid
  reading atoms ...
  58275 atoms

mass		1  15.9994
mass            2  51.9961

# -------------------- FORCE FIELDS ----------------------
pair_style buck/coul/long 10.0 10.0
pair_coeff    * * 1e-30 1e-30 0.0
pair_coeff    1 2 1204.18 0.3165   0.0
pair_coeff    1 1 9547.96 0.21916  32.0

kspace_style    pppm 0.0001



##-------------------- energy minimization ---------------

#compute   aE   all pe/atom
#min_style  fire

thermo          100
thermo_style    custom step pe pxx pyy pzz pxy pxz pyz lx ly lz temp

minimize      1e-8 1e-8 1000 1000
WARNING: Resetting reneighboring criteria during minimization (../min.cpp:168)
PPPM initialization ...
  G vector (1/distance) = 0.308704
  grid = 72 80 75
  stencil order = 5
  estimated absolute RMS force accuracy = 0.00180078
  estimated relative force accuracy = 0.000125057
  using double precision FFTs
  3d grid and FFT values/proc = 58144 28800
Memory usage per processor = 12.4981 Mbytes
Step PotEng Pxx Pyy Pzz Pxy Pxz Pyz Lx Ly Lz Temp 
       0   -1797379.3   -136346.86   -136350.64   -33589.325    61.399422    73.235858    73.781272       77.301      89.2602      81.5585            0 
      28   -1805569.3    -86113.38   -86162.384   -186537.16   -37.066666    56.551387     109.1216       77.301      89.2602      81.5585            0 
Loop time of 59.7416 on 15 procs for 28 steps with 58275 atoms

Minimization stats:
  Stopping criterion = energy tolerance
  Energy initial, next-to-last, final = 
        -1797379.27408     -1805569.29258     -1805569.30664
  Force two-norm initial, final = 821.914 1.35861
  Force max component initial, final = 16.7665 0.0293895
  Final line search alpha, max atom move = 0.0078125 0.000229605
  Iterations, force evaluations = 28 122

Pair  time (%) = 14.9112 (24.9595)
Kspce time (%) = 38.1476 (63.8543)
Neigh time (%) = 0 (0)
Comm  time (%) = 3.45011 (5.77505)
Outpt time (%) = 0 (0)
Other time (%) = 3.23271 (5.41116)

Nlocal:    3885 ave 3993 max 3775 min
Histogram: 6 0 0 0 0 0 0 6 0 3
Nghost:    18518.8 ave 18745 max 18293 min
Histogram: 6 0 0 0 2 1 0 0 0 6
Neighs:    1.45381e+06 ave 1.51056e+06 max 1.3872e+06 min
Histogram: 1 1 1 1 2 3 1 2 1 2

Total # of neighbors = 21807158
Ave neighs/atom = 374.211
Neighbor list builds = 0
Dangerous builds = 0

## --------------------- system relax --------------------
#dump          1 all xyz 100 xyz/all.xyz
#dump_modify   1 element O Cr

velocity      all create ${mytemp} 4928459 dist gaussian
velocity      all create 2000 4928459 dist gaussian
fix           1 all npt temp ${mytemp} ${mytemp} 0.1 iso 0.0 0.0 2
fix           1 all npt temp 2000 ${mytemp} 0.1 iso 0.0 0.0 2
fix           1 all npt temp 2000 2000 0.1 iso 0.0 0.0 2
run      50000
PPPM initialization ...
  G vector (1/distance) = 0.308704
  grid = 72 80 75
  stencil order = 5
  estimated absolute RMS force accuracy = 0.00180078
  estimated relative force accuracy = 0.000125057
  using double precision FFTs
  3d grid and FFT values/proc = 58144 28800
Memory usage per processor = 10.2481 Mbytes
Step PotEng Pxx Pyy Pzz Pxy Pxz Pyz Lx Ly Lz Temp 
      28   -1805569.3   -57451.923   -57547.659   -158031.06    16.364654    110.64371    257.97868       77.301      89.2602      81.5585         2000 
     100     -1798007   -14102.264   -13502.057    -126220.5   -476.19147    87.321128    233.23714    77.194982     89.13778    81.446643    1042.7692 
     200     -1797435    18534.065    20435.009   -99103.137    418.67417    573.29958    569.77343    76.950532    88.855512     81.18873     1086.606 
     300   -1797106.8    40159.309    41119.349   -81864.685    62.370415    753.24265    652.99628    76.808677     88.69171    81.039061     1200.891 
     400   -1796294.6    53111.431     52480.48   -69403.342   -953.85851    105.37533   -177.14559    76.747069     88.62057     80.97406    1272.3368 
     500     -1795623    54104.204    54347.552   -65647.613    186.43802     928.5769   -126.91585    76.770598     88.64774    80.998885     1375.326 
     600   -1794836.3    49297.429     48972.24   -67837.405   -48.266235     107.9635   -239.93362    76.850782    88.740329    81.083486    1471.3791 
     700   -1794084.5    44074.511    43354.849   -71083.717    -476.0831   -152.88081    79.531363    76.939396    88.842652     81.17698    1578.0252 
     800   -1793294.6    41137.806    40876.241   -72008.371    323.68926    616.14512    29.599986    77.008092    88.921977     81.24946    1680.5291 
     900   -1792518.2    40671.035    40981.032   -71333.954     161.6375   -304.40657    58.892414    77.057911    88.979503    81.302023     1779.523 
    1000   -1791731.9    41042.553    39750.153   -70750.529    530.24539   -489.82144   -388.68825    77.100077    89.028192     81.34651    1863.8055 
    1100   -1791087.6    39667.803    39742.448   -69771.757   -333.45725    117.20769    -623.1207    77.141844    89.076422    81.390579    1944.5706 
    1200   -1790569.9    38521.443     39854.84   -71019.852    921.92834    334.40638   -412.09234    77.182884    89.123811    81.433879    2006.4831 
    1300     -1790186    36633.959     36526.94   -72759.731    435.52968   -357.65875   -125.03175    77.219806    89.166444    81.472834    2034.5615 
    1400   -1790179.6    33960.168     34386.13    -74101.49   -672.61193    144.06519   -557.56034    77.244094     89.19449     81.49846    2040.1492 
    1500     -1790342    32264.834    32966.424   -75635.842    55.160436    472.18588    205.85958    77.250118    89.201446    81.504816    2003.9747 
    1600   -1790652.7    32876.402     30775.31   -75629.304    2.2896475    -280.5772   -96.042673     77.23526     89.18429     81.48914    1986.1879 
    1700   -1790677.2    34680.123    34704.081   -73411.931   -141.72769   -312.93419    238.40404    77.206369    89.150929    81.458658    1971.3694 
    1800   -1790615.2    38571.361    38293.316   -70733.668   -382.41716    215.95305    610.55782    77.181353    89.122042    81.432263    1994.4587 
    1900   -1790401.9    40930.711    39981.653   -68739.656    20.471627   -651.99484     438.1717    77.176742    89.116718    81.427398    2010.6853 
    2000   -1790352.4    37990.811     38386.62   -70260.968    45.411878    520.43223    456.81685    77.194319    89.137015    81.445943    2021.9815 
    2100   -1790387.1    36046.623    35352.526   -72338.893    239.25254     347.5431   -466.21361    77.218931    89.165434    81.471911    2007.6507 
    2200     -1790509    33463.506    32575.333   -73774.713    309.79816    670.81903    -189.2856    77.232882    89.181544     81.48663    1989.8728 
    2300   -1790561.7    34066.795    33327.678   -74313.531    42.457217    48.346179    759.83397    77.226942    89.174685    81.480363    1979.5865 
    2400   -1790501.5    35406.884    36198.174   -72746.992    69.286614   -581.18462   -244.31243    77.208664    89.153578    81.461078    1985.9719 
    2500   -1790528.9    38268.763    37015.823   -70143.389    350.55411   -395.83994     1063.474    77.193739    89.136344    81.445331    2018.6115 
    2600   -1790356.9    37734.735    37939.628   -69271.315   -97.288103   -993.33851     495.3708    77.194619    89.137361     81.44626    2011.3005 
    2700   -1790413.3    36089.691    36181.368   -71563.679    168.26295   -930.81092    346.85797    77.207605    89.152356    81.459961    2006.0991 
    2800   -1790476.9    34188.576    33858.056   -72762.421   -366.56343   -862.13957    292.25374     77.21992    89.166577    81.472955    1988.7627 
    2900     -1790579    34789.731    32581.608   -74078.469    176.56494   -675.58543   -247.74139    77.220777    89.167566    81.473859    1989.8742 
    3000     -1790508    36348.318    35251.642   -72999.843    461.65738   -1217.3359    451.91082    77.210721    89.155954    81.463249    1990.0843 
    3100   -1790401.4    37177.924    37886.821   -70309.432    393.12244   -52.019382    291.54585    77.200211    89.143817    81.452159    1998.3168 
    3200     -1790391    38750.066     38272.63    -69873.78    159.54976   -198.97907     753.1907     77.19896    89.142374     81.45084    2010.9085 
    3300   -1790414.9    37515.017    36361.975   -71597.081    150.91916   -246.97872    102.41356     77.20773      89.1525    81.460093    2006.4088 
    3400   -1790525.9    35263.009    34187.835   -72981.879    143.46326      60.3442    191.55336    77.216597    89.162739    81.469448    2000.3378 
    3500   -1790553.4    34835.187    33803.861   -73057.447   -1047.3907    137.12736   -727.25174    77.217656    89.163962    81.470566     1991.056 
    3600   -1790581.8    34010.056    35675.549   -73532.098    203.30898     610.9336   -28.547258    77.211741    89.157132    81.464325    1998.8477 
    3700   -1790520.5    35581.784    35941.955   -71599.351    -599.5185    350.96001    178.63391    77.203836    89.148004    81.455984    2008.5801 
    3800   -1790454.4    37309.519    36770.744   -69393.447    215.19715    128.35087   -23.914014    77.201281    89.145053    81.453288    2013.2281 
    3900   -1790432.6    34919.171    36910.297   -70829.655    170.98939    856.05387    248.55362    77.207644      89.1524    81.460002    2007.6295 
    4000   -1790418.5    34776.468    35005.391   -71800.887    256.47227    145.62096    170.26334    77.215988    89.162036    81.468806    1991.4155 
    4100   -1790520.1    35433.151    34296.388   -73078.528    774.53839    522.88358    95.824144    77.218928    89.165431    81.471908    1992.7592 
    4200   -1790496.9    34832.075    34977.692   -73486.192   -404.93068   -1050.5438    55.169209    77.214361    89.160157    81.467089    1990.8455 
    4300   -1790477.5    35824.485    37324.138   -71637.572    259.82546    785.59309   -87.979419    77.206078    89.150593     81.45835    2000.3506 
    4400   -1790448.5    36777.035    37453.818   -70663.105    152.04204    943.16718    351.60041    77.202538    89.146505    81.454615    2006.8308 
    4500   -1790451.8    37452.906    36386.535     -71376.6   -121.18236    102.69305    286.71402    77.205519    89.149947     81.45776     2006.942 
    4600   -1790513.6    36107.783    34902.059   -72571.611   -1140.8431     452.9069   -885.60769    77.211964    89.157389     81.46456    2004.4675 
    4700   -1790518.4    34089.646    35751.151   -73678.409   -147.44103    447.70908   -196.84509     77.21575    89.161761    81.468555     1994.868 
    4800     -1790458    36734.758    35689.206   -72876.556    411.24964   -481.82286    808.78152      77.2137    89.159394    81.466392    1987.4402 
    4900   -1790455.7    35904.098    35574.212   -71899.613   -561.48353   -50.272785    342.45617    77.209175    89.154169    81.461618    1997.9564 
    5000   -1790409.4    36940.391    37633.032   -70414.484    162.36343   -214.47728    157.85789    77.206766    89.151387    81.459076    2001.9637 
    5100   -1790478.3    37076.718    36204.777    -72160.61   -510.67317    43.387554   -190.99913    77.209381    89.154406    81.461834    2011.7258 
    5200   -1790448.1    36622.173    36038.942   -72043.937   -1412.0753    46.798751   -583.03597    77.213483    89.159143    81.466162    1997.7612 
    5300   -1790569.4    35536.901    34825.138   -73237.611   -107.97628   -336.66049   -244.58658    77.215736    89.161744     81.46854    2003.8263 
    5400   -1790492.5    35740.378    36450.901   -73511.858    82.273881    472.62067   -1.9693341    77.213001    89.158587    81.465655    1991.6009 
    5500   -1790542.5    36167.847    35527.909   -72097.829     547.1804    111.03733   -301.98164    77.207266    89.151965    81.459604    2007.0942 
    5600   -1790428.9    37158.265    37277.934   -72198.811   -159.66991   -235.75526   -203.95495    77.204113    89.148324    81.456277    2001.4681 
    5700   -1790451.8    35813.501    37786.564   -71613.681   -640.83803    552.88323   -385.82793    77.206754    89.151373    81.459063    2005.9232 
    5800   -1790515.4    34852.499    36605.468   -71648.718    285.40622    1988.8423   -592.63561     77.21144    89.156784    81.464007    2007.2954 
    5900   -1790535.6    34351.913    35052.466   -73204.522   -164.33914    523.83491   -267.23632    77.214133    89.159894    81.466849    2001.5305 
    6000     -1790490    34330.548    36645.241    -72042.63   -575.81672    524.35635   -277.00154    77.212942    89.158518    81.465592    1992.4143 
    6100   -1790551.2    34831.961    36400.758   -72741.042    4.4248589    42.799111    755.30779    77.208975    89.153938    81.461407    2006.9077 
    6200   -1790409.8    37681.583    37291.326   -70919.446    832.26623   -731.90664    1151.9194    77.204499     89.14877    81.456684    1996.9351 
    6300   -1790519.8    36530.645    36787.946   -71507.053   -282.48785   -500.48085    66.688866    77.204958      89.1493    81.457169     2014.677 
    6400     -1790479    36249.022    35661.665   -71524.848     197.7879   -373.99395    1168.0211    77.210229    89.155386     81.46273    2003.6734 
    6500   -1790510.5    34570.502     35064.11    -72074.81    398.75187    539.41343    120.45614    77.215431    89.161392    81.468218    1998.7867 
    6600   -1790419.9    35100.773    35529.747   -72683.226    416.31092    125.66592    964.79348    77.215962    89.162006    81.468778     1983.092 
    6700   -1790493.3    35300.408    35284.982   -72031.332   -33.602845   -479.30617    788.17105    77.211157    89.156457    81.463708    1998.3528 
    6800   -1790500.2    35962.466    36641.634   -70810.373    419.77404    565.58092    390.99247     77.20565    89.150099    81.457899    2008.0997 
    6900   -1790420.4    36784.299    37055.768   -70702.341    335.83136    574.58298    569.00586    77.203741    89.147894    81.455884     2000.484 
    7000   -1790510.5    36363.565    35699.135   -71679.311   -325.19631    0.8062741    898.61257    77.207332    89.152041    81.459673    2007.9607 
    7100   -1790530.2    35060.989    35317.425   -71932.707   -204.83597   -146.24218   -82.322096    77.212477    89.157981    81.465101     2002.654 
    7200   -1790485.9    35406.466    34758.292   -72092.081    693.00694    138.81177    377.36971    77.216376    89.162484    81.469216    1994.1843 
    7300   -1790467.2    34506.846    34644.915   -72197.927    522.01398   -386.85127   -74.452971    77.216236    89.162322    81.469067    1995.6157 
    7400   -1790494.4    34818.286    35512.593   -70916.555     -393.776   -114.63728   -802.07404    77.212182    89.157641    81.464791    2006.6435 
    7500   -1790471.7    36175.601     35837.08   -72150.035    53.209837   -17.496991    325.86797    77.208199    89.153041    81.460587     2007.202 
    7600   -1790416.8    37260.294    36729.209   -71981.695   -302.22949    11.063091   -8.1205126    77.205322     89.14972    81.457552    1994.1849 
    7700   -1790444.2    37516.428    35212.515   -71782.921   -46.057235   -79.254074      85.1849     77.20552    89.149948    81.457761    1990.6978 
    7800   -1790510.2    36924.229    35870.703   -72010.189   -124.39124   -66.510308   -40.778859    77.207747     89.15252    81.460111    1996.1755 
    7900   -1790536.3    35314.436    35795.844   -72835.026   -660.79663    283.53784    509.98379    77.210717    89.155949    81.463244    2002.6846 
    8000   -1790391.4    36331.391    36244.979   -72146.899   -35.451711    441.03012   -75.632816    77.211435    89.156779    81.464002    1990.2446 
    8100   -1790502.5    36794.126    35013.709   -72408.918   -72.796034      -197.72    6.8490027    77.210525    89.155728    81.463042    2011.1666 
    8200   -1790390.8    37846.787    37009.866    -72444.39   -886.94387   -203.07164    153.43892    77.208326    89.153188    81.460721    1993.0318 
    8300   -1790469.2    36631.434    36593.506   -72291.292   -474.70499   -1060.9644    183.08205    77.207003    89.151661    81.459326    1995.9028 
    8400   -1790498.2     34773.48    36249.361   -72787.917   -88.382988    61.011083    306.17978    77.206762    89.151383    81.459072    1995.0642 
    8500   -1790548.7    36884.558    35808.964   -72222.232   -421.19339   -215.31183    350.56751    77.205633    89.150078     81.45788    2003.1528 
    8600   -1790496.8    35572.397    35872.662   -72419.927    430.49021   -192.78007    116.88506    77.205965    89.150462     81.45823    2002.1676 
    8700   -1790464.6     37855.41    36552.673   -72013.911    34.371078   -41.855645   -155.16665    77.205735    89.150196    81.457988    2003.0565 
    8800     -1790514    35202.994    34997.938   -72801.494   -625.88796    -310.3437   -522.41428    77.208425    89.153303    81.460827    2009.9461 
    8900   -1790434.1    35349.919    35124.255   -71565.796    385.64672   -64.643931    637.52843    77.212269    89.157742    81.464882    1995.0707 
    9000   -1790480.5    35729.718     35138.84   -72394.174    -163.2676    263.79879    7.6338153    77.214584    89.160415    81.467325     1995.438 
    9100     -1790430    36322.339    36114.396   -73073.803    331.69808     382.0233   -535.32449    77.213086    89.158685    81.465744    1986.3641 
    9200   -1790494.6      36371.5    37353.589   -71969.319   -284.01868    293.70891    2.0950536    77.207983    89.152792    81.460359    2000.5569 
    9300   -1790512.6    36122.149    36105.665   -72836.909    105.39122   -28.136944    335.76758    77.204058     89.14826    81.456219      2007.98 
    9400   -1790482.5    37277.058    38027.531   -71926.302   -352.02445    164.74671      147.409    77.204496    89.148766    81.456681    2005.3384 
    9500   -1790498.2    36827.792    35560.608   -72307.167     662.0404   -643.81752    169.66295     77.20763    89.152385    81.459988    2002.4516 
    9600   -1790467.4    36037.465    34950.669   -72521.677    -484.6634    499.90631    503.60961     77.21117    89.156473    81.463723     1992.401 
    9700     -1790567    35475.526    36139.949   -72991.454   -449.41388   -549.21386    414.13646    77.212521    89.158032    81.465148    2005.7312 
    9800   -1790418.3     36447.48    36244.046   -71517.564   -224.93385   -554.12266    477.89253    77.210675    89.155901    81.463201    1990.7407 
    9900     -1790471    35971.548    36364.755   -72375.381    42.067188    367.71163     562.9867    77.209591    89.154649    81.462056    2003.8871 
   10000   -1790486.2    35578.518    36700.773   -72375.634   -455.34149   -344.62691   -131.38058    77.210186    89.155336    81.462684    2006.2229 
   10100   -1790461.2    35529.161    37358.502   -72259.172    278.45492     141.4633    67.772366    77.211162    89.156464    81.463715    1997.9083 
   10200   -1790503.6    36039.008    36593.446   -72902.732   -482.28002   -356.63768   -127.43844     77.21092    89.156183    81.463458    1997.8439 
   10300   -1790534.4    36660.129    35003.362   -72954.353   -252.32746    133.61811    69.181969    77.210263    89.155425    81.462766    2001.6861 
   10400   -1790488.8     37065.16    36518.664   -72538.271    366.34326    544.58663    544.34088    77.208306    89.153165    81.460701    1999.7968 
   10500   -1790485.8    35605.953    37003.795   -72415.945   -109.17824    642.61905    885.59519     77.20716    89.151842    81.459491    2002.9484 
   10600   -1790456.6    36362.643    37096.005   -72454.137    811.12017    397.23351   -304.88074    77.208247    89.153097    81.460639    2000.9141 
   10700   -1790536.6    35407.343    35237.529   -72061.538   -1.5672637   -249.99738   -354.37519    77.211801    89.157201    81.464388    2008.1433 
   10800     -1790456    35822.266    35419.987   -72216.447    264.17135   -543.78061   -233.80799    77.213839    89.159554    81.466538    1992.2713 
   10900   -1790582.3    35152.066    34956.822   -73717.716   -668.79627   -408.81723    775.58665    77.212299    89.157776    81.464913    2009.5931 
   11000   -1790559.6    37025.323    36645.305   -71289.332   -659.98889   -381.76664   -209.50734      77.2073    89.152003    81.459639    2010.7568 
   11100   -1790513.6    36413.907    36409.921   -72882.786   -119.19118   -739.58537    217.50735     77.20438    89.148632    81.456559    2007.2536 
   11200   -1790421.4    36350.299    37246.942   -70919.444    103.61848    245.67185   -158.93581    77.204465    89.148731    81.456649    1993.4805 
   11300   -1790515.3    35492.349    36739.697   -72317.641   -823.19658    217.80681    -560.2521    77.207951    89.152756    81.460326    2002.3381 
   11400     -1790538    35026.674    35458.237   -73333.926   -602.94977   -405.19144    490.74129    77.212424    89.157921    81.465046    2003.0687 
   11500   -1790482.5    35691.379    36873.676   -72836.617    635.38404    678.03772    598.51833    77.213388    89.159033    81.466062    1997.3578 
   11600   -1790476.8    35680.848    37083.242   -73029.667    591.03027    -638.3636   -511.20973    77.211044    89.156328     81.46359     2001.072 
   11700   -1790414.6    37143.465    35668.288   -72433.015    578.61671   -267.67375     88.40373    77.207852    89.152641    81.460222    1995.3199 
   11800   -1790431.1    36996.061      37747.4    -72214.85   -240.98266    596.13456   -438.17026    77.206242    89.150782    81.458523    1996.2168 
   11900   -1790457.5    37839.861    36640.221   -71469.106    278.36761   -974.44565      125.736    77.207896    89.152691    81.460268    1994.6544 
   12000   -1790527.1    35972.363    35592.037   -73367.466    414.01989   -494.44492    668.13596    77.211333    89.156661    81.463895    1999.8674 
   12100   -1790472.6    35632.663    35456.925   -72647.172     19.64575   -53.697471    525.91826    77.213476    89.159135    81.466155    1994.8301 
   12200     -1790518    35989.213    35844.966   -73720.691   -138.05845   -404.23818   -245.98505    77.213151     89.15876    81.465813    2008.3558 
   12300   -1790440.6    37150.229    35855.311   -71590.579   -171.44939   -463.68173     390.9616    77.209495    89.154538    81.461955    2001.2242 
   12400   -1790439.6    36508.133    36310.384   -71724.629    371.10269    94.281524    453.87733    77.205817    89.150291    81.458074    1998.7581 
   12500     -1790473    36398.385    36914.214   -71817.643    1039.7031   -175.41177    156.93784    77.204576    89.148858    81.456765    1995.2651 
   12600   -1790504.1    36336.527    35406.341   -72111.105    119.32209   -74.359649   -212.77557    77.205654    89.150103    81.457903    1993.3897 
   12700     -1790497     36539.45    35026.439     -71220.1   -311.35951   -231.60907    33.888966    77.208584    89.153486    81.460994    1993.7884 
   12800   -1790412.8    35435.212     36091.38   -71634.868   -345.51202   -85.815048    252.41141    77.211659    89.157037    81.464238    1990.9514 
   12900   -1790417.9    35010.038    34750.178   -71989.159    80.840685    139.23906     173.0617     77.21332    89.158955     81.46599    1999.5249 
   13000   -1790421.1     36294.44    35893.782   -71965.295    52.404795    444.31506      31.2795    77.212095     89.15754    81.464698     2000.897 
   13100   -1790511.9    36464.572    36127.976   -71737.455   -125.57158    473.35544    104.98832    77.209059    89.154035    81.461495    2005.8796 
   13200   -1790501.8    36318.691    35755.949   -72545.532   -166.67232    182.99126   -246.92312    77.207233    89.151926    81.459569    1995.3026 
   13300     -1790517    35761.843    36539.538   -72989.169   -238.14375   -191.99615    157.39941    77.206403    89.150968    81.458693    1994.6768 
   13400   -1790495.4    37050.741    36671.562   -71886.492    119.05052    191.23689   -200.91917    77.206247    89.150787    81.458528    1997.3341 
   13500   -1790416.1    36082.142    37456.666   -72148.793   -386.59885    261.41677    154.43305    77.209623    89.154686     81.46209    1995.9979 
   13600   -1790479.1    34443.064    35142.794   -73059.248    535.19942    374.91075    113.81986    77.214828    89.160697    81.467582    2010.3365 
   13700   -1790447.5    35077.753    34554.401   -72728.393    546.94713   -639.04321   -156.10033    77.217891    89.164233    81.470814    2002.9937 
   13800   -1790408.7    36406.662     35419.42   -73626.916    231.29693   -152.31362    257.28216    77.217285    89.163534    81.470174    1988.6946 
   13900   -1790532.1    35907.973    36066.962   -73750.779    663.51109    400.85161    516.58226    77.211993    89.157423    81.464591    1997.5551 
   14000     -1790484    37226.185    36269.939   -71953.935   -483.68045     -985.642   -409.60623    77.203419    89.147522    81.455545    1992.2569 
   14100   -1790514.6    38653.121    36396.455   -71378.071    995.73743   -230.94415    444.56679     77.19807    89.141345      81.4499    2004.8461 
   14200   -1790536.1    37892.898    36726.814   -72103.863    376.51703   -641.58863    42.886571    77.200797    89.144495    81.452778    2013.5308 
   14300   -1790443.2    36449.193    35501.118   -71617.025    974.55125   -411.83356    67.271917    77.209083    89.154062     81.46152    1999.3914 
   14400     -1790502    34664.435    35497.774   -72857.789   -656.62895    83.896183    337.45601    77.218225    89.164619    81.471166    2000.1011 
   14500   -1790546.9    33814.168    34310.756   -73824.588   -171.15128    -211.0878    420.90885    77.221533    89.168439    81.474657      2002.61 
   14600   -1790564.7    35097.506    34421.803   -72372.163    641.79356    322.58152    438.94525     77.21545    89.161415    81.468239     2008.164 
   14700   -1790464.3    36729.533    37068.374   -70672.224    87.372978    198.57221    546.28087    77.204809    89.149127    81.457011    2002.4079 
   14800   -1790449.4    37213.106    36910.489   -71181.175    205.33652   -323.41071    596.82977    77.198615    89.141975    81.450476    2003.6805 
   14900   -1790454.3    37473.608    37694.397   -71025.906    623.88572   -365.66077    239.63549    77.200611     89.14428    81.452582    1998.3263 
   15000   -1790500.6    35660.785    36178.983    -71856.69   -188.59238   -917.54985    -131.8983    77.209026    89.153997     81.46146    1994.8287 
   15100     -1790507    34688.119    34299.752   -72591.414   -811.92133   -102.59033   -642.58226    77.216559    89.162696    81.469409    1992.0379 
   15200     -1790452    35501.271    35058.563    -71110.75   -99.767304   -437.31703   -1386.0344    77.217606    89.163904    81.470513    1992.0273 
   15300   -1790504.2    35614.586    34975.619   -72682.441   -483.97186   -23.804203    83.102529    77.212693    89.158231    81.465329    2009.3906 
   15400   -1790409.9    37272.152    36391.192   -71154.754    25.651112    180.41599    572.18153    77.206448     89.15102     81.45874    2002.8305 
   15500   -1790436.8    37066.821    36955.687   -72080.604    562.22753    18.441201   -10.824691    77.204119     89.14833    81.456283    2000.6618 
   15600   -1790420.3     36351.74     35848.87   -71233.343    292.00412    249.56089    331.49349    77.205435     89.14985    81.457671    1985.0345 
   15700   -1790476.1    35406.031    36097.282   -73249.048    84.403758    64.139391    52.755439    77.208896    89.153847    81.461323    1983.3682 
   15800   -1790510.1    36618.013    35342.927   -72418.667    -711.0463    223.65009    621.76255    77.210264    89.155426    81.462767    1990.8557 
   15900   -1790455.8    36325.702    37069.142       -73105    92.997144    27.007398    86.636353    77.209065    89.154041    81.461501     1997.708 
   16000   -1790377.2    36904.218     37697.79   -72556.685     671.0971    208.56741   -655.55261    77.207577    89.152323    81.459931    1999.4538 
   16100   -1790471.2    37885.354    35958.163   -72542.616   -77.778471    335.46769    83.688961    77.208989    89.153954    81.461421    2011.5864 
   16200   -1790518.1    35949.975    35818.003   -73987.902    748.47472   -243.32693    389.40499    77.212717    89.158259    81.465354    2004.3115 
   16300   -1790552.4    35058.111    35498.036   -74601.763    713.83555   -38.201064     157.6256    77.213635    89.159319    81.466323    1995.4573 
   16400   -1790556.7    35035.934    35284.188   -73263.745    843.70239    405.53948    141.20803    77.208365    89.153233    81.460762    1995.5143 
   16500   -1790509.4    37587.135    37660.428    -71665.04    162.21803    332.21255   -36.745137    77.199957    89.143525    81.451892    2000.1706 
   16600   -1790526.8     37654.43    37534.115   -71622.871   -679.29971    619.40955   -282.44054    77.196546    89.139586    81.448293    2014.1923 
   16700   -1790418.1    37664.154    37057.141   -70718.652    301.77621    146.77537     307.9746    77.201542    89.145354    81.453564    2000.6073 
   16800   -1790533.3    35716.187    35796.162     -72402.7    94.990664   -4.9125159   -234.64013    77.213223    89.158843    81.465889     2006.737 
   16900   -1790497.1    35825.563    33732.439   -73486.793    339.77808    233.65717    245.81942     77.22221    89.169221    81.475371    1992.0733 
   17000   -1790591.7    33559.582    34541.004   -73694.745   -840.10932     631.2711   -218.42344    77.222014    89.168995    81.475164    2005.4286 
   17100   -1790508.8    35729.857    35835.302   -72446.964    619.45469    657.37254    405.78243    77.212945    89.158522    81.465595    2003.2349 
   17200   -1790493.1    36765.151    36920.922   -71714.274   -231.27034    231.29716   -353.81491     77.20106    89.144799    81.453056    2009.7313 
   17300   -1790486.4    38201.307    37128.307   -70889.833   -284.80845     211.5434   -30.587458    77.194434    89.137147    81.446065    2007.6322 
   17400   -1790546.4    37794.626    37006.282   -70963.844    477.05709     4.632394    252.10278    77.197676     89.14089    81.449485    2005.3684 
   17500   -1790512.4    35357.652    36248.989   -73038.985    151.47378    349.62195    736.67357    77.207526    89.152265    81.459878    1990.5699 
   17600   -1790417.2    34537.657    36090.228   -73961.229    326.28417    554.18432   -386.73153    77.215108     89.16102    81.467878    1978.4934 
   17700   -1790415.6    35316.242    35563.025   -72142.293   -5.6805736    29.830452    278.18501    77.215983     89.16203    81.468801     1990.333 
   17800   -1790443.7     35932.58    35717.123   -71800.384    52.066945    113.52739    647.16919    77.211529    89.156887    81.464101    2007.0313 
   17900   -1790466.5    35972.982     36852.35   -71980.794    -345.4617    31.287623   -226.12213    77.206873    89.151511    81.459189    2011.0685 
   18000   -1790475.4    36402.202    37241.678   -71589.039    30.392866    436.13391   -643.37564    77.205255    89.149643    81.457482    2000.5444 
   18100   -1790634.2    35615.998    36485.402   -71981.946    49.381903   -496.93634   -733.88225    77.207681    89.152444    81.460041    2007.2593 
   18200   -1790533.7    36049.214     36080.82    -73577.46    -355.8095    649.55483   -364.60997    77.210299    89.155467    81.462804    1990.3026 
   18300     -1790509    36061.663     36424.59   -73356.454    35.205804    985.92728    593.83899    77.210178    89.155327    81.462676    2000.0679 
   18400   -1790389.1    37751.075    36226.162    -71958.77     777.1975    400.45675   -311.69746    77.208765    89.153695    81.461185     1998.824 
   18500   -1790420.9    37905.702    35851.102     -72025.7    195.66867   -586.32411    192.54534     77.21046    89.155653    81.462973    2007.0568 
   18600   -1790471.9    35561.589    35477.496   -73539.806    210.44536    443.58866   -104.40659    77.214155    89.159919    81.466872     2003.198 
   18700   -1790521.8    35407.552    35745.645    -73419.37    -385.3403    408.95966     434.5718    77.214982    89.160874    81.467744    1997.3255 
   18800     -1790546    35334.784    36716.999   -72398.259    1028.6408    561.40868    516.97168    77.210052    89.155182    81.462543    1995.6824 
   18900   -1790511.1    36582.117    36083.461   -71573.927    456.33381   -318.20853   -74.946964    77.202109    89.146009    81.454162    1997.4631 
   19000   -1790444.9     37482.88    37717.415   -70764.097   -179.40774    346.42879    -582.8213    77.197115    89.140242    81.448893    1999.8015 
   19100   -1790442.4    37200.174    38012.654    -71106.98   -331.87657     1061.208   -114.65081    77.200687    89.144368    81.452662    2004.6616 
   19200   -1790435.6    35623.514    36459.096   -72155.582   -465.44257    210.35052    291.59363    77.212817    89.158374     81.46546    1997.8925 
   19300   -1790517.8    34014.268    34473.837   -73653.123    308.88299   -173.91708    354.63574    77.225342    89.172837    81.478675     2000.208 
   19400   -1790590.2    33431.024    33838.739   -73812.812   -88.577338   -250.72859    117.54926    77.226958    89.174703     81.48038    2007.5246 
   19500   -1790466.2    35547.331    35961.979   -72282.616    191.67785    106.95164    919.78057    77.214259    89.160039    81.466982     1997.202 
   19600   -1790488.4    38307.036    37201.923   -70267.447   -142.14592    525.47357    359.89523    77.195747    89.138663     81.44745    2006.8317 
   19700   -1790479.7    39620.064    39189.537   -69581.995   -234.97144    338.65843   -248.77036    77.185443    89.126766    81.436579    2004.0578 
   19800   -1790551.9    37763.405    37378.984   -71271.688       447.98     325.4545    1.6709994    77.192044    89.134387    81.443543    2002.9738 
   19900   -1790517.5    36185.748    35726.787   -72741.476   -164.49014   -381.18665    287.61493    77.209954    89.155068     81.46244    1989.7977 
   20000   -1790524.5    33379.757    33917.858   -75366.521   -883.44716    337.56068   -952.45757    77.226227    89.173859    81.479609    1995.6675 
   20100   -1790430.7    34102.365    33693.624   -73700.019   -81.783095   -219.50547   -385.66042     77.22881    89.176841    81.482334    1998.9299 
   20200   -1790440.6    35979.521    35175.364   -71793.717   -341.58023    258.14012   -408.73713    77.218218    89.164611    81.471158    2012.6831 
   20300   -1790469.8    37186.743    36293.537   -71826.607   -772.79164    165.16316   -612.42294    77.203666    89.147808    81.455806    2013.6446 
   20400   -1790476.6    37580.285    37916.639   -70628.374   -406.39595   -105.16795   -158.26411    77.194848    89.137625    81.446501     1997.202 
   20500   -1790590.6    36074.435    37842.469   -71760.566    112.20338   -340.67759   -529.03786    77.195094    89.137909    81.446761    1995.2906 
   20600   -1790580.6    36576.154    36416.609   -72660.979   -1124.3406   -190.26665   -163.74338    77.201707    89.145546    81.453738     1990.893 
   20700   -1790456.4    35805.216    35243.084   -72813.703   -550.00881    54.415258    -420.7832    77.210891     89.15615    81.463428    1987.8169 
   20800   -1790401.8    35450.526     36012.55   -72995.731   -735.73527    29.477058   -695.43348    77.218542    89.164985      81.4715    1999.9913 
   20900   -1790373.3    35360.356    34957.564   -72900.231    686.34886   -194.98076    443.05032    77.222792    89.169892    81.475984    2007.0726 
   21000   -1790384.9    35722.497      35587.3   -72733.043    257.69169   -669.75238    553.52086    77.222103    89.169097    81.475258    2001.5129 
   21100   -1790454.9     34221.67    35793.226   -72998.564    548.55765   -142.43847    446.73137    77.215467    89.161434    81.468256    1993.1633 
   21200   -1790498.5    35858.802    36174.902   -70939.684    172.14495   -85.581736    108.39705    77.202589    89.146563    81.454668    1985.3494 
   21300   -1790487.8    37244.958    38111.299   -70552.945   -63.934921    56.670179    406.09955     77.18972    89.131704    81.441091    1985.0494 
   21400   -1790543.6     38520.46    38572.457   -69834.139    176.02203    457.98632    114.97573    77.185839    89.127222    81.436996    2005.2242 
   21500   -1790475.2    37239.519    37262.633   -71064.962    882.66753    716.66195    496.60397    77.197589    89.140791    81.449394    2006.5761 
   21600   -1790472.2     34226.36    36192.708   -72441.773   -415.69995    375.48481     234.3295    77.219235    89.165785    81.472232    2006.9075 
   21700     -1790440    33711.747    32877.693   -74672.986   -741.59064   -139.11922    265.32042    77.236635    89.185877     81.49059    1996.6407 
   21800   -1790473.9    32068.707    33043.064   -73762.356    328.02178   -779.00412    149.50842    77.234849    89.183815    81.488706    1995.3772 
   21900   -1790477.4    35722.333    34373.173   -73885.739    81.093351    -1374.942    299.87087    77.213314    89.158948    81.465985    1995.7325 
   22000     -1790527    39823.533    38937.414   -70334.333   -83.355908   -608.26423    487.56665    77.185544    89.126882    81.436685     2006.937 
   22100   -1790485.8    39529.691    40425.559    -68906.15   -713.48537   -186.24663    832.73192    77.172665    89.112011    81.423097    1999.2825 
   22200   -1790503.4    39368.182    38339.671   -70827.215    89.423066   -952.88714    625.04067    77.183176    89.124147    81.434186    1993.2684 
   22300   -1790509.6    36403.432     35543.19   -73154.794   -652.67655   -824.76868   -346.81994     77.20917    89.154163    81.461612    1990.1748 
   22400   -1790502.6    33321.519    33273.699   -74746.853   -378.98432   -620.64433   -91.368938    77.233075    89.181766    81.486834     1996.476 
   22500   -1790453.2    32698.327    33143.844   -74568.937    80.724793    153.00028     184.9804    77.239446    89.189122    81.493555    2005.0215 
   22600     -1790385    34878.443    33332.561   -73221.108    630.48631    460.59326    60.570692    77.227309    89.175108     81.48075    2006.0776 
   22700   -1790400.8    37769.041    37072.464   -71862.221    89.313548   -211.08032    1046.2095    77.206033    89.150541    81.458302    2003.8314 
   22800   -1790510.8    38808.441    37267.892   -70715.086   -545.71223    183.53158    953.46719    77.189528    89.131482    81.440888    2000.8468 
   22900   -1790581.5    38740.276    37794.212   -70450.044   -314.76246   -646.28812    30.947172    77.185572    89.126915    81.436715    1992.6463 
   23000   -1790570.8    37460.419    37744.194   -71295.569   -4.7587616    610.94589   -243.46533    77.194389    89.137095    81.446017    1987.7676 
   23100   -1790521.6    36175.173    35714.974   -71789.502   -99.019736    566.04882    97.092207    77.209245     89.15425    81.461692    1996.0857 
   23200   -1790486.3    34686.607    33856.737   -73238.304   -373.03191   -968.27893    224.79221    77.222224    89.169236    81.475385    2010.9971 
   23300     -1790394    34051.047    35378.465   -72943.596    65.580681    94.861682   -732.09886    77.226867    89.174598    81.480284    2009.6137 
   23400     -1790398    34053.519    34424.298   -73637.554   -55.498871    321.45057    366.27149    77.222228    89.169241     81.47539     2003.957 
   23500   -1790530.1    36724.216    35865.363   -72981.201   -158.04934   -80.836146   -687.81943    77.209668    89.154738    81.462138    2004.0254 
   23600     -1790529    37102.691    37423.067   -71639.633   -269.12096   -186.30286   -765.32158    77.197334    89.140496    81.449125    1989.3883 
   23700   -1790599.7     37741.27    38060.936   -70602.125   -434.46665    -176.8737    182.40071    77.191711    89.134002    81.443191    1997.3456 
   23800   -1790495.4    37258.053    37803.482   -71097.272   -89.023712    253.80741   -330.57355    77.195685    89.138592    81.447385    1995.0834 
   23900   -1790477.1    36145.353    36942.687   -72975.099   -909.40315    133.74767   -245.80875    77.207346    89.152057    81.459688    2007.0435 
   24000   -1790408.7    35914.875    35366.641   -73815.261     380.2956    770.24843   -458.50336    77.219918    89.166574    81.472953    2003.6743 
   24100     -1790373    34261.222    34276.438   -73785.615    189.31503   -534.25704   -317.04543    77.226905    89.174642    81.480324    1993.0871 
   24200   -1790483.9    34604.875    34619.975   -74560.264   -788.76962    13.892793    -583.2219    77.222826    89.169931     81.47602    1997.2218 
   24300   -1790538.9    35616.525    38073.918   -72554.038    440.30107    452.98361   -357.51094    77.208013    89.152827    81.460391    1997.4926 
   24400   -1790508.6    38061.608    36602.134   -71159.248   -81.270735   -768.60211    -114.4162    77.194212    89.136891    81.445831    1993.9204 
   24500   -1790472.9    39307.218    38382.618   -69585.734   -53.605466   -364.12648   -41.405871    77.189711    89.131693    81.441081    1994.5344 
   24600   -1790532.5    36451.329    37505.887   -70887.221    -317.6453   -286.30011   -23.336854    77.199842    89.143392     81.45177    2008.0793 
   24700   -1790412.9    35602.623     35922.86   -72494.659    124.62962    307.42482    112.37648    77.217196    89.163431     81.47008     1993.939 
   24800   -1790447.1    34601.487    33598.043   -74017.111    153.74407    227.11564    564.48252    77.230375    89.178648    81.483985    1998.1784 
   24900   -1790493.7    33392.451     33363.77   -74283.431   -397.64611   -248.07592   -270.56237    77.231171    89.179568    81.484825    2004.1591 
   25000   -1790446.2    35507.445     35443.34    -73417.75   -997.10673    224.24022    47.519537    77.219088    89.165615    81.472077    1997.8273 
   25100   -1790474.1    37412.072    36718.931   -71578.444   -60.087153   -914.50247     325.1669    77.202211    89.146128     81.45427    2000.4552 
   25200   -1790482.7    38823.172     37658.13   -71302.829    722.18986   -152.91949    1068.8007    77.190989    89.133169     81.44243    1996.3206 
   25300   -1790513.3     38316.87    37521.569   -71293.696   -589.06088   -334.53034    400.67396    77.191355    89.133592    81.442816    1993.0682 
   25400   -1790528.3    36937.037    36367.887   -73201.819    326.09666    68.936901   -195.18488    77.202057     89.14595    81.454108    1993.4991 
   25500   -1790500.9    35942.968    35440.442   -72501.612   -152.34719    65.696543    41.939352    77.214598    89.160431    81.467339    1998.5982 
   25600   -1790380.2    34560.904    34883.832   -73310.074   -532.42579   -119.50157    25.325226    77.222704    89.169791    81.475892    1992.9155 
   25700   -1790463.2    34559.891    34616.883   -73819.724    116.53721   -589.72731    12.615382    77.223254    89.170426    81.476472    2008.9347 
   25800   -1790438.6    33894.828    35641.232   -73073.275    222.77577    368.30951    610.17672    77.217235    89.163475    81.470121    2001.1994 
   25900   -1790536.7    36050.999    35730.582   -73062.905   -330.23029    746.12264   -1114.5419    77.207158     89.15184     81.45949     2001.662 
   26000   -1790563.3    38805.083    36697.757   -71253.265    360.24899   -301.30253   -246.13535    77.198052    89.141325    81.449882    1999.4124 
   26100   -1790560.4    36852.243    36162.809   -71159.545   -240.33338   -916.30823   -77.734613    77.195973    89.138924    81.447689     2002.676 
   26200   -1790429.9    37156.684    37089.376   -71090.504   -648.83411    380.03602    -365.1743    77.201214    89.144976    81.453218    2004.4912 
   26300   -1790435.3    36587.712    35225.456    -71991.61   -198.77718   -868.02437    69.197074    77.212296    89.157773    81.464911    2008.6094 
   26400   -1790512.7    34308.582    34017.889   -73851.827   -407.70159   -1250.8739   -38.008149    77.222568    89.169634    81.475749    2008.6075 
   26500   -1790520.5    33832.842    34504.221   -74326.718    465.14714     512.1551     91.91104    77.223219    89.170386    81.476435    2002.0716 
   26600     -1790492    35209.295    35154.444   -74088.727     480.0994    104.08258    18.907279    77.213569    89.159242    81.466253    1997.1621 
   26700   -1790539.3     36231.28    37585.316   -72418.499   -545.80322    306.05179   -949.75801    77.199638    89.143156    81.451555    2005.4771 
   26800   -1790451.1    37289.763    37772.104   -71285.723   -403.99771    485.58213   -557.83213    77.191767    89.134068    81.443251     1998.404 
   26900   -1790456.9    38097.784    38859.237   -71481.205   -408.88928    293.40076    264.19072     77.19527    89.138113    81.446947    2010.6746 
   27000   -1790492.9    35536.481    36633.006    -73293.23   -13.932904    1099.1071    610.80174    77.209085    89.154065    81.461523    2013.0056 
   27100   -1790483.8    34943.565    34297.265   -74342.653    87.859562   -492.56768   -44.166673     77.22206    89.169047    81.475212    1997.1523 
   27200   -1790470.5     33649.38    33958.148   -75195.296    394.41471    327.34124   -251.73779    77.224066    89.171364    81.477329    1990.3185 
   27300   -1790474.4    35205.305    36116.104   -72754.446   -631.57766   -309.22107     261.1851       77.214     89.15974    81.466708    1996.1247 
   27400   -1790466.2    37692.942    37093.338   -71407.673    910.19485    -164.8523    809.62174    77.201371    89.145157    81.453384    2007.0723 
   27500   -1790415.3    39010.846    38175.289   -70838.944     587.7736    -377.7984    263.66576    77.196889    89.139982    81.448655    2015.1963 
   27600     -1790399    37817.631    37289.904   -71824.948   -90.980207    41.692589    416.80255     77.20386    89.148032     81.45601    2015.5583 
   27700   -1790481.6    35238.387    34821.049   -73785.239   -610.77234    47.210596   -699.92713    77.216359    89.162464    81.469197     2004.222 
   27800   -1790537.7    34102.258     34449.01   -74336.664     696.5431    364.00336     189.4454    77.223241    89.170412    81.476459    2001.9197 
   27900   -1790561.2    35263.404    35072.395   -73054.555    392.96952   -389.16614   -608.32518    77.218729    89.165201    81.471698    2004.7336 
   28000   -1790550.2    36747.897      35396.3   -73064.608   -699.05186   -347.84172   -453.73945     77.20701    89.151668    81.459333    2010.0674 
   28100   -1790459.3    38225.063    37109.137   -70351.571   -429.63103   -541.38956    447.31942    77.196246    89.139239    81.447976    2006.1512 
   28200   -1790469.7    38647.747    36686.699   -70492.954   -3.4300958   -356.88816    623.44791    77.195722    89.138634    81.447423    2008.0011 
   28300   -1790560.2    36472.983    35519.602   -72152.407    193.46978   -281.77439   -349.77687    77.205988    89.150489    81.458256    2002.8355 
   28400     -1790462     35704.28    34012.729   -72924.908    -561.0299   -378.07397    250.38542    77.217509    89.163792     81.47041    1984.2167 
   28500     -1790543    35344.605    33761.446   -73464.885   -115.38012   -177.86124   -114.46409    77.221328    89.168202     81.47444    2003.1925 
   28600   -1790524.7    36189.802     35852.96   -72154.389    308.34101    -53.77742   -348.45941    77.216552    89.162688    81.469401    2012.0984 
   28700   -1790504.7     36495.14     35100.04    -72085.83   -568.98358   -33.699442   -697.17247    77.209279    89.154288    81.461727    2009.3728 
   28800   -1790494.4    37693.338    36692.444   -71560.006   -137.11346   -264.46989   -127.03407     77.20279    89.146796    81.454881    2003.1575 
   28900     -1790489    36796.167    38042.228   -71576.996   -358.07201   -85.313455    404.48795    77.200662    89.144339    81.452636    1995.8983 
   29000   -1790549.2    35482.508    36301.462   -73277.769    415.87998   -193.89805   -220.67658    77.202908    89.146932    81.455005    1995.3187 
   29100   -1790668.3    35368.779    36183.867   -73686.994   -234.01485    195.50935    395.21549    77.205505    89.149931    81.457745    1994.0096 
   29200   -1790618.4    35719.246    36298.031   -73787.533   -274.75789    -524.2901    229.31059    77.204956    89.149298    81.457167    1988.7933 
   29300   -1790582.6    35545.011    37641.005   -71927.797   -34.463838    544.13798    428.63923    77.201902    89.145771    81.453944    2000.7593 
   29400   -1790456.5    36677.731    37715.455   -72004.428   -382.53131    35.050077    21.919761    77.200671     89.14435    81.452646    1991.6563 
   29500   -1790494.3    37248.793    37400.358   -72275.046   -401.61969    584.48798   -38.452245    77.204013    89.148209    81.456172    2004.9246 
   29600   -1790483.6    36723.262    35523.149   -72074.231   -545.74409    344.36412    157.85666    77.211452    89.156798     81.46402    2006.6863 
   29700   -1790442.5     35186.12    34439.888   -73050.276   -536.83793    668.50806   -877.26807    77.218754    89.165229    81.471724    1997.2752 
   29800   -1790504.3    35291.672    34819.737   -73209.919   -283.01003   -488.86262   -13.977522    77.218819    89.165304    81.471792    1991.4002 
   29900   -1790546.6    35303.319    35471.571   -72682.198   -191.80114   -658.02476   -277.69808    77.210083    89.155218    81.462576     1993.232 
   30000     -1790451    38276.275    37031.488   -71136.951   -213.73305   -345.56206   -31.377219    77.198093    89.141372    81.449925    1993.4923 
   30100     -1790473    38553.735    37943.191    -70059.68    1066.1665   -624.98692     399.7068    77.192983    89.135472    81.444534    2006.8407 
   30200   -1790514.6    36064.862    37799.119   -71189.826   -111.44645    146.86915    692.24653    77.200969    89.144693    81.452959    2009.3956 
   30300     -1790527    35281.155    35092.351   -73257.348    1141.7621   -653.99086     220.9988    77.215242    89.161174    81.468018     2003.582 
   30400   -1790516.4    33534.456    33111.003   -73938.122    1083.8833    229.91943    1066.4967    77.224666    89.172056    81.477962    1997.8508 
   30500   -1790483.1    34927.135    34961.305   -73189.695    284.19308    72.819502   -290.44671    77.222146    89.169146    81.475303    1997.8994 
   30600   -1790440.8    35258.708    37539.385   -72066.633   -654.97258    674.70851    187.78123    77.210739    89.155975    81.463268    2008.3409 
   30700   -1790435.4    36622.889    38034.864   -71374.453    558.19411   -488.80341    535.82392    77.200713    89.144398    81.452689    2007.6433 
   30800   -1790447.2    36788.447    38428.331   -70819.036   -312.48354    277.83714    317.95639     77.19852    89.141865    81.450375    1994.6026 
   30900   -1790534.7     36288.49    36310.676   -72295.192   -507.13598    217.04276     775.7418    77.203551    89.147675    81.455684    1998.8262 
   31000   -1790525.2    35653.921    36232.233   -72317.092    13.561272    128.64406    71.909353    77.212013    89.157446    81.464612    1999.1493 
   31100   -1790548.1    34738.937    35784.547   -73234.941    274.96525   -346.89153    451.98744    77.218976    89.165486    81.471958    2009.8228 
   31200   -1790445.7    35299.662    34163.247   -73596.711   -534.67835    361.61407   -149.88674    77.220656    89.167426     81.47373    2010.2807 
   31300   -1790362.6     35911.01    36667.019   -71628.846     201.1216    208.27902    47.737569    77.216643    89.162792    81.469497    2007.9029 
   31400     -1790455    36496.966    35030.171   -72195.336    488.88391   -71.852942     325.6511    77.211676    89.157056    81.464256    2001.4803 
   31500   -1790510.5    36047.578    35352.247   -71061.531    210.65742   -251.80667     485.5114    77.205959    89.150455    81.458225    1995.1666 
   31600   -1790483.4    37096.791    36322.922   -70972.253   -548.89958   -69.945916   -164.75755    77.200951    89.144673    81.452941    1989.0793 
   31700   -1790492.7    38311.906     36231.63   -70814.649    234.07357   -310.50273    674.00568    77.200113    89.143705    81.452056    1996.8334 
   31800   -1790476.7     36899.22    37743.584   -71724.193   -86.039722    762.87588   -938.68219    77.206564    89.151153    81.458862    2005.6975 
   31900   -1790408.5    35286.521    35930.545   -72636.651   -763.40873   -114.62042   -444.86087      77.2166    89.162742    81.469451    1998.9359 
   32000   -1790481.7    34840.504     32950.09   -74639.898   -116.32935   -230.04031   -1104.2055    77.222869    89.169982    81.476066    1997.0185 
   32100   -1790543.7    34593.548    34056.064    -74458.63   -475.72423   -456.88128   -1129.8165    77.218725    89.165196    81.471693    1992.0235 
   32200   -1790586.7    35749.599     37167.78   -72097.616   -832.78941   -520.21062   -510.47346    77.204947    89.149287    81.457157    2003.0322 
   32300   -1790491.7    38417.422    37624.823   -71307.771    303.03442   -956.69973    213.96447    77.191804     89.13411    81.443289    1999.7711 
   32400   -1790467.7    39631.503    38677.296   -71573.587   -651.41019   -452.91191   -42.168184    77.188301    89.130065    81.439593    1999.4064 
   32500   -1790444.7    37584.538    38342.663   -71348.438    330.34149   -588.27068    498.95824    77.198257    89.141561    81.450098    1993.9073 
   32600   -1790450.8    35572.168    35638.321   -73618.208   -304.45597   -26.197112   -443.78857    77.215362    89.161313    81.468145    1993.5481 
   32700   -1790477.3    34106.876    33433.597   -74578.564   -79.150076   -405.19491     467.6529    77.227641    89.175492    81.481101    1998.5465 
   32800   -1790489.5    35624.861    33341.777   -73639.679    400.73926   -105.28844    34.880697    77.227251    89.175042    81.480689    2003.6752 
   32900   -1790420.5    34881.913    35427.286   -73104.389    373.09548    37.406118   -681.04319    77.215565    89.161547    81.468359    2000.1576 
   33000   -1790365.4    36643.698    38312.925   -69992.953    -256.2733   -619.36143    663.25387    77.202002    89.145887     81.45405    2008.4994 
   33100   -1790478.8    38184.211    37694.146   -70091.407    150.78314   -20.311064   -150.00438    77.198467    89.141804     81.45032    2019.2476 
   33200   -1790494.8    37512.928    35235.288   -71244.381   -470.36462   -388.69487    370.76315    77.204756    89.149066    81.456955    2004.7436 
   33300     -1790488    35148.541    34867.071   -73030.086      267.058     -378.998    182.61658    77.215099    89.161009    81.467868    1997.6914 
   33400     -1790474    34987.787    34908.937   -72363.624    202.67433   -81.731285    115.31784    77.221098    89.167936    81.474197      1993.38 
   33500   -1790532.5     34647.08    35265.182   -72268.373    563.24558     243.4038   -876.43168    77.217753    89.164074    81.470668    2006.0669 
   33600   -1790485.2    36607.171    35534.992   -72335.556    527.35977   -486.52014   -528.00284    77.208939    89.153896    81.461368    2012.6294 
   33700   -1790400.2    35908.623    38013.539   -70628.885   -330.00284    527.41223   -232.27503     77.20219    89.146103    81.454248    2004.5198 
   33800   -1790482.7    36709.954    35080.817   -72090.033   -619.41197   -251.21776    182.70452    77.202231    89.146151    81.454291    1996.4856 
   33900     -1790535    36078.575    36398.243   -71974.184   -147.73357    354.15973    556.40332    77.204561     89.14884    81.456749    1996.5578 
   34000     -1790554    36717.134    35907.044   -72368.603    453.02916   -5.8976878    366.82744    77.206872    89.151509    81.459187    2003.0934 
   34100   -1790454.5    36298.686    35000.534   -72470.565    131.18998   -506.77464    354.97374    77.209457    89.154494    81.461915    1999.8636 
   34200   -1790413.7    36654.576     35511.19   -71404.249    52.035385   -151.88882   -215.66661    77.210545    89.155751    81.463063    2001.2321 
   34300   -1790483.1     35893.16    34742.956    -72065.36   -52.835026    -827.1302   -358.64259    77.212855    89.158419    81.465501    2004.7653 
   34400     -1790523    34954.737    34796.299   -73935.476    461.81198    237.33813   -191.18656    77.213421    89.159072    81.466097    1992.2634 
   34500   -1790575.1    36205.964    35738.103   -72395.579    1218.9168   -339.01935    626.64598    77.207851     89.15264    81.460221    1998.2744 
   34600   -1790540.8     37237.33    36581.824   -71673.177   -603.36877   -514.41804    146.09438     77.20168    89.145515     81.45371    2005.6579 
   34700   -1790485.2    37487.736    36527.449   -70531.796   -458.77052    670.30077   -779.01755    77.199682    89.143207    81.451602    2005.6032 
   34800   -1790445.2    37070.231    35979.631   -71626.341    -370.3864   -663.13591   -674.76096    77.202792    89.146798    81.454883     1998.321 
   34900   -1790480.8    36219.378    35926.073   -71566.584    476.32604    5.2699304   -140.03487    77.208654    89.153567    81.461068    1999.5566 
   35000   -1790419.1    35178.643    35630.577   -72307.332   -482.63658    699.18721   -1143.1032    77.214155     89.15992    81.466872    1989.0939 
   35100   -1790510.8    35899.182    34363.085   -72936.454    -1221.258    461.23483   -1164.7572    77.214873    89.160748    81.467629    2001.4274 
   35200   -1790515.8    35060.555    35606.629   -71783.521    727.92956    389.45971   -55.313615    77.210287    89.155452     81.46279    2003.4176 
   35300   -1790494.9    37013.875    35774.562    -71528.12    672.45196   -59.498026   -262.03204    77.204062    89.148265    81.456223     2000.309 
   35400   -1790486.3    37697.965    37354.879   -70422.032   -364.48112   -898.63616    255.34681    77.201361    89.145146    81.453373    1999.0968 
   35500   -1790503.2    37116.475    37540.934   -71834.355   -115.83476    561.72596   -899.81984    77.203797    89.147959    81.455944    2000.2232 
   35600   -1790531.7    36880.274    35791.031     -72123.2    326.45443    240.10892    278.86583    77.209236    89.154239    81.461681    2002.7471 
   35700   -1790538.4    36034.961    34038.693   -73998.803    1006.6395   -83.240976    440.89759    77.213004     89.15859    81.465658    2002.2125 
   35800   -1790450.3    35111.563    37296.062   -72754.422    313.45398    768.18607   -514.36385    77.211752    89.157145    81.464337    1993.3873 
   35900   -1790389.8    36682.172    36086.645   -72017.044    -343.8158    664.83007    -141.9385    77.208402    89.153276    81.460802    1992.4807 
   36000   -1790513.9    37272.566    36528.329   -72716.557   -510.81785    19.910176    107.69708    77.204015     89.14821    81.456173    2014.6214 
   36100   -1790494.6     37357.42    37509.215   -71018.021   -482.56173    1136.4226   -747.29875    77.202087    89.145984    81.454139    2006.4885 
   36200   -1790562.9     37268.15    35151.131   -72264.317    562.80246   -254.71932    719.26597    77.204545    89.148823    81.456733    1999.2377 
   36300   -1790560.9    36106.732    35281.262   -72929.299    384.29925   -119.71649   -41.616894    77.209229    89.154231    81.461674    1997.8317 
   36400   -1790555.2    35587.398    35284.847   -72998.732   -1212.9578    166.32479    174.40509    77.212447    89.157947     81.46507      2006.75 
   36500   -1790463.9    35882.442    35464.442   -73681.229    175.14561    -341.6868   -97.415025    77.213335    89.158972    81.466007    2004.6476 
   36600     -1790474    36197.984    36061.485   -71761.908   -210.29224    58.193862    554.95391    77.211867    89.157277    81.464458     2005.503 
   36700   -1790519.6    36089.656    36018.975   -72413.911   -317.39872    179.23283     243.4399    77.210646    89.155868     81.46317    2007.7916 
   36800   -1790501.5    36094.632    36459.367   -72011.538    222.77515   -187.18515    785.27514    77.209291    89.154303     81.46174    1999.2607 
   36900   -1790481.3    35625.086     35518.99   -71787.078    778.99594    1.5916703    225.69475    77.207576    89.152323    81.459931    1990.5531 
   37000   -1790555.2    35514.476    35756.345   -72414.832    280.52283     -102.705    854.59628    77.204289    89.148527    81.456463    1991.0049 
   37100   -1790547.8    36119.435    35343.401   -71947.785   -72.274248   -183.63657   -410.35268    77.200106    89.143697    81.452049    1985.5062 
   37200   -1790576.2    36716.116    36763.935   -70686.525    215.64707    162.46677    329.75441    77.197853    89.141096    81.449672    2004.5744 
   37300   -1790485.5    35706.544    38356.254   -70651.458    755.88638    584.16204    837.44957    77.201606    89.145429    81.453632    2002.3217 
   37400   -1790441.2    35462.492    36412.486   -72340.892   -293.41864   -637.03886     285.5858    77.211614    89.156985    81.464191     1998.306 
   37500   -1790476.9    34953.459     34144.67   -72666.942   -557.24639   -326.04278    156.65888    77.219702    89.166324    81.472724    1998.1293 
   37600   -1790575.4    32901.144    34060.906   -73641.848     876.0259    374.50771     492.8944    77.218778    89.165258     81.47175     1998.352 
   37700   -1790586.9    34439.984    35583.813   -72037.279   -285.11886    635.54316    362.35148     77.20716    89.151842    81.459492    1992.9199 
   37800   -1790583.5    37005.852    37735.566   -70315.692   -1274.0476   -151.83662   -220.02739    77.190521    89.132629    81.441936    2007.2511 
   37900   -1790495.8    38458.204    39349.183   -69835.194   -291.70259    410.73958    433.94286    77.183922    89.125009    81.434974    2006.9716 
   38000   -1790454.8    36962.397    37654.818   -70852.152   -155.25552    1204.3066   -269.07755    77.194667    89.137417    81.446311    1997.7882 
   38100   -1790472.9    35426.691    35444.255   -72957.069   -621.35699    353.13611    198.09839    77.214643    89.160483    81.467387    1991.1647 
   38200   -1790528.4    32012.586    34381.763   -74782.719    39.381429     1366.721   -502.74692    77.228678     89.17669    81.482195    1993.9202 
   38300   -1790499.9    32890.317    33463.421   -74194.432     47.87887    765.53091    -260.4709    77.225164    89.172631    81.478487    2002.9586 
   38400   -1790417.4    37326.386    35728.081   -71686.383   -634.22565    367.84937   -121.47157    77.207963    89.152769    81.460339    2004.9557 
   38500   -1790535.3    37508.052    37449.059   -70608.199    257.26292   -15.254089    352.42145    77.191867    89.134183    81.443356    2015.1439 
   38600   -1790589.7     38078.69    38081.469   -71113.827    866.99458    205.27608    565.72445    77.187891    89.129592    81.439161    2008.2974 
   38700   -1790593.5    36945.426    36995.639   -71798.639    632.23563   -237.95859    570.50719    77.196431    89.139453    81.448171    2004.4878 
   38800   -1790510.6    36010.908    34825.713   -73703.343    -9.346882   -462.06567   -484.77845    77.212821    89.158379    81.465464    1996.5064 
   38900     -1790446    34931.799    34508.923   -73407.224   -173.49155   -66.506489   -257.44821    77.225151    89.172617    81.478474    2000.4963 
   39000   -1790465.6    33968.029    34026.774   -72588.838   -436.42228   -112.60637    -357.9896    77.227179    89.174958    81.480613    2016.6796 
   39100   -1790435.6     34393.32    34847.904   -71845.348   -65.493352   -585.48417    561.57175    77.219655     89.16627    81.472675    2008.9568 
   39200   -1790406.4    36484.023    37279.328   -72149.664    475.64259     431.4351    124.29328    77.208598    89.153503    81.461009    1995.3248 
   39300   -1790489.4    37807.345    36288.038   -71203.376   -321.84772   -512.97244   -990.42113    77.199044     89.14247    81.450928    1996.3638 
   39400   -1790533.9    37850.706    36705.622    -70812.21   -328.62431   -239.48211    118.46311    77.193552    89.136128    81.445134    1996.8138 
   39500   -1790513.7    36315.727    38996.186   -70788.582    845.29461    796.83839    -231.3969    77.194792    89.137561    81.446442    1992.8315 
   39600     -1790489     35719.43    35487.878   -71362.791   -789.93702    452.74554   -480.61748    77.203817    89.147982    81.455964    2001.5867 
   39700   -1790394.2    36441.507    35083.253   -71393.106   -929.92048    74.993451   -314.99902    77.215761    89.161773    81.468566    2002.4319 
   39800   -1790445.2    34335.594    33716.315   -73120.127    31.377567      375.452    191.85729    77.225472    89.172987    81.478812    2006.5457 
   39900   -1790428.4    34267.644    34192.967   -72952.713    214.72598    282.20298    561.48977    77.224609    89.171991    81.477902    1991.1886 
   40000   -1790449.7    35178.142    35972.244   -72305.662   -1200.4372    635.30932   -303.25037    77.212159    89.157614    81.464766    1987.5052 
   40100   -1790498.8    38072.139    36979.736   -70998.441     659.5001   -266.50467    488.96584    77.194739      89.1375    81.446387     1995.952 
   40200   -1790520.2    38297.031    38563.574   -70168.152    151.64665    488.10779    75.021746    77.185575    89.126918    81.436718    2000.6364 
   40300   -1790538.6    37866.458     37695.27   -69708.728   -239.88604    131.79471    1040.8256     77.19058    89.132697    81.441999    2003.0082 
   40400   -1790502.8     35499.25    36442.099   -71070.469    61.279034   -206.90998    83.967404    77.207419    89.152141    81.459765    1996.8768 
   40500   -1790459.6    33857.295    34737.948   -72694.987   -235.05138    622.36493    780.04298    77.224256    89.171583    81.477529    1992.1344 
   40600   -1790428.2    34049.207    33337.056   -73373.388    404.53553   -166.29266    670.49686    77.230257    89.178513    81.483861    2002.3368 
   40700   -1790401.8    34143.042    35133.595   -72651.506    811.83564    263.60811    632.77269    77.222275    89.169296    81.475439    2004.7455 
   40800     -1790438    36728.439    36295.242   -72331.078    780.04886    21.167983    1165.3617    77.207178    89.151863    81.459511    2001.7903 
   40900     -1790506    37924.152    37119.478   -71161.715    80.439187    -593.0921    613.09089    77.193692     89.13629    81.445282    1996.4424 
   41000   -1790572.3    38152.483    38092.478   -71075.093    605.84292   -1166.8238    340.44175    77.189004    89.130877    81.440336    2001.0025 
   41100     -1790521     37504.93    37923.558   -71559.505    1029.3995   -325.57781    1084.1448    77.195686    89.138593    81.447386    1996.6156 
   41200   -1790524.5    37196.742    34551.069   -73303.635    574.60984   -492.29192   -14.935197    77.209219    89.154219    81.461664    2008.5376 
   41300   -1790359.3    35654.623    34771.092   -73820.169    1168.2021   -712.90742    509.77991    77.222036     89.16902    81.475187    2002.5078 
   41400   -1790409.7    33583.686    34312.252   -73227.191    271.10346   -122.46027    460.67203    77.228373    89.176337    81.481873    2006.8287 
   41500   -1790408.6    33826.784    35830.216   -73339.087   -327.63966   -116.21072    457.16661    77.223506    89.170717    81.476738    1997.7109 
   41600   -1790456.1     36161.73    36616.661   -72837.026   -326.93294    -377.7273    584.34552    77.210422    89.155609    81.462933    1996.8353 
   41700   -1790475.9    37571.156    37961.196   -71124.603   -31.037362   -267.73595   -877.06467    77.196198    89.139184    81.447926    1993.7404 
   41800   -1790523.7     37680.76    38330.585   -70898.049   -203.43552    205.14631    81.664365    77.189889    89.131899    81.441269    1994.5504 
   41900   -1790611.1    37102.177    37156.657   -71516.342   -956.30259   -25.200604     219.4435    77.194023    89.136673    81.445631    1993.1122 
   42000   -1790613.2    35757.466    34545.228   -72189.872   -596.64176    622.53365   -47.177189    77.203615    89.147749    81.455751     1989.483 
   42100   -1790570.6    35509.831    36038.524   -72987.262    730.68426   -414.61269     587.2234    77.211396    89.156733    81.463961    2001.5345 
   42200   -1790475.7    35522.723    35817.144   -72574.151   -444.14464    617.76385   -646.27003    77.215084    89.160992    81.467852    1997.7963 
   42300   -1790489.5    34712.531    35259.577   -73388.436   -802.22743     403.3817    611.50381    77.215253    89.161188    81.468031    2004.6262 
   42400   -1790467.6    35339.219      35419.2   -72494.739    154.56796    -553.7309   -283.16389    77.212462    89.157965    81.465086     2004.294 
   42500     -1790485    35127.263    36299.344   -72853.075    383.90589     789.7198   -146.98942    77.208556    89.153454    81.460964    2000.4592 
   42600   -1790508.8     36870.48    36049.756   -72337.583    380.01055    414.94641    118.03152    77.203782    89.147942    81.455928    1988.3815 
   42700   -1790610.4    36339.138    37483.936   -71901.288    227.09154   -110.51861   -56.798157    77.200296    89.143917     81.45225    2000.0002 
   42800   -1790533.2    36379.681    37421.007   -72495.476   -325.68026    689.53814    83.120376     77.19989    89.143448    81.451822     2000.703 
   42900     -1790511    37570.269    38052.316   -72355.215    1218.5608    374.57982    445.01645    77.203952    89.148137    81.456107    2009.2904 
   43000   -1790466.8    35050.038    36468.137   -72331.794    345.02745   -178.97626    408.60107    77.212822     89.15838    81.465466    2002.4689 
   43100   -1790537.4    34553.602    35370.584   -72877.917   -27.750522     116.0126    306.97069    77.220106     89.16679     81.47315    2005.7885 
   43200   -1790524.9    34230.233    35378.487    -73599.73    519.76792    14.231128    117.50203    77.219049     89.16557    81.472035    1998.8073 
   43300   -1790539.2    36420.927    35047.741   -72010.184    870.52876   -24.722403    942.38459    77.209133     89.15412    81.461573    1996.1588 
   43400   -1790543.1    37192.583    37308.212   -71575.912    695.61798   -338.38218     697.2504    77.197316    89.140475    81.449105    1996.4332 
   43500   -1790540.4    38591.651    38160.571   -70907.525   -261.09425   -236.53592    124.65088    77.191032    89.133219    81.442475    2005.5799 
   43600   -1790514.3    36675.307    38099.773    -69885.56    180.57043    316.86745    128.28498    77.195965    89.138915     81.44768    2010.9107 
   43700   -1790495.4    36269.182    35657.099   -71109.595    454.34378   -43.267724    790.41582    77.211404    89.156742    81.463969    2008.0833 
   43800   -1790484.6    32269.682    33344.861   -73238.229     161.8102   -201.97536   -291.67185    77.228228    89.176169     81.48172    1991.0433 
   43900   -1790527.2    33987.107     33088.46   -73757.418     214.4651    227.06195    708.63508    77.231455    89.179896    81.485125    1990.9495 
   44000   -1790525.4    35674.066    33819.844   -73649.212    727.68984   -1341.6439     787.1508    77.217969    89.164323    81.470896    2000.7814 
   44100   -1790525.4    37972.858    36835.029   -70282.652   -626.59573    -171.2386    481.37491    77.197376    89.140544    81.449169    2007.3906 
   44200   -1790476.5    39704.525    38591.101   -69539.906    409.66214   -12.939996   -374.65938    77.186355    89.127818     81.43754    1999.2473 
   44300   -1790486.2    37342.869    37603.838   -71110.789   -507.68975    49.503319    496.61633    77.191343    89.133578    81.442804    1993.8543 
   44400   -1790496.5    37294.913    35329.487   -72335.622   -406.59428   -1052.6702   -258.65226     77.20624     89.15078    81.458521    1986.1689 
   44500     -1790577    34255.837    34149.697   -74233.572    56.482773    701.38944    578.26486    77.221505    89.168406    81.474626     1994.878 
   44600   -1790488.8    33723.504    34825.678   -73346.805    287.26527   -83.668023    124.58082    77.225787    89.173351    81.479145    1999.9929 
   44700   -1790400.7    36149.523    35072.512   -72789.927   -161.96035    214.70267   -153.94252    77.218673    89.165136    81.471639     1998.632 
   44800   -1790431.9    37339.266    36356.252   -71395.319   -516.77728    384.23066    51.389175    77.206323    89.150876    81.458609    2000.7478 
   44900   -1790493.6    36938.589    37304.376   -70555.025    565.97036   -371.67525    239.79612    77.197918     89.14117    81.449741    1996.1799 
   45000   -1790542.8    37146.925    37102.308   -70897.862    872.54165    482.03526   -87.525773    77.195774    89.138695    81.447479    1995.3587 
   45100   -1790530.5    37717.703    35479.779   -71261.461   -123.88398   -89.085504    25.443706    77.200643    89.144317    81.452616      1996.07 
   45200   -1790515.5    36117.192    36339.498   -72381.162    906.97599    190.30221    9.4659753    77.209951    89.155065    81.462437     1999.602 
   45300   -1790511.6    33675.045    34979.279   -73430.054   -978.88891    6.2531463   -305.80675    77.217775    89.164099    81.470691    2002.1209 
   45400   -1790507.2    36404.784    35194.772   -72734.541   -185.56258    336.25631   -309.02942    77.217567    89.163859    81.470472    2004.1125 
   45500   -1790512.4    36025.834    36327.071   -72506.732    156.45626   -567.97737     471.4381    77.211359    89.156691    81.463922    2006.9901 
   45600   -1790477.2    36868.075    36651.357   -71126.188    266.31334   -262.70722    323.86206    77.204741    89.149049     81.45694    1998.2824 
   45700   -1790564.7    37885.213    35638.695   -71585.071   -289.75757     558.6561    737.71686    77.201516    89.145325    81.453537    1998.3249 
   45800   -1790624.2    36668.779    36115.163   -71992.049   -319.80443   -480.55833    1031.6301    77.201873    89.145737    81.453913     2002.324 
   45900     -1790560     36465.37    36534.472   -72261.346    783.97572   -24.250657     -388.722    77.205505    89.149932    81.457746    2003.9073 
   46000   -1790450.4    36580.477    35355.024   -72856.291   -167.83275   -1155.1543   -210.56014    77.210487    89.155684    81.463002    2003.0712 
   46100   -1790456.2     36861.55    35469.122   -72498.251    279.17028    195.00586    1125.0254    77.214729    89.160582    81.467477    2003.4402 
   46200   -1790448.4    34306.555    34762.449    -72256.33   -125.53098   -1034.6642    287.78018    77.217327    89.163582    81.470218    1996.6547 
   46300   -1790452.5    35034.035    35773.025   -72123.705    377.15981   -460.45025    720.90386     77.21287    89.158436    81.465516     1991.401 
   46400   -1790547.8     36296.49     35980.28    -71986.27    -293.7183    313.00234    1198.1942    77.203838    89.148006    81.455986    1999.2181 
   46500   -1790558.2      37426.4    36366.627   -70627.451    22.441257   -371.84616    156.70561    77.196478    89.139508    81.448221     1991.005 
   46600   -1790606.8    37338.149    36657.581   -71172.279    -283.0192   -251.54083    340.67074    77.195297    89.138144    81.446976    1997.8484 
   46700   -1790523.7    35923.464    36508.297    -71214.07   -314.06542   -521.78734   -171.59567    77.200547    89.144206    81.452514    2000.5084 
   46800   -1790472.1    36031.728     35956.14   -71205.214    258.09251    -280.9626   -108.18994    77.209778    89.154865    81.462253    2002.6091 
   46900   -1790447.4    36020.519     34802.01   -72068.591   -414.61403   -211.38481    -44.04726    77.219657    89.166272    81.472677    2000.0574 
   47000   -1790508.8    34537.367    34166.746   -72573.767    177.41428   -45.916994   -135.82745    77.223381    89.170573    81.476606    2002.4759 
   47100   -1790521.8     34617.93    34050.575   -73404.759   -214.72442   -300.82179   -241.04289    77.216787    89.162959    81.469649    1986.6614 
   47200   -1790559.1    36758.136     35481.35   -71611.069    702.59035    -523.3584    876.22274    77.201571    89.145389    81.453595    1990.3336 
   47300   -1790549.1     37351.17    38919.516    -70356.64   -356.42359   -199.28612   -350.89661     77.18868    89.130504    81.439994    2000.1672 
   47400   -1790542.4    38084.558    38176.015   -69299.691    -610.7882   -500.34104   -725.11989    77.188504      89.1303    81.439809    2004.6411 
   47500   -1790545.5    36733.692    36102.344   -71386.821    46.314611    270.37323    664.62524    77.202012    89.145898     81.45406    2004.8104 
   47600   -1790498.1    34289.649    34259.983   -73094.601   -24.262711    156.88356    250.59945    77.220535    89.167286    81.473603    2000.5881 
   47700   -1790449.4    32952.201    33974.215   -74398.402   -828.29886    438.05092    463.07246    77.231065    89.179445    81.484713    2005.3676 
   47800   -1790360.5    33661.378    35365.348   -74919.401   -493.38908    357.01071    177.00545    77.227427    89.175245    81.480875    2005.0629 
   47900   -1790441.4    36587.892    36685.123    -72531.99    983.67376    102.88094    1427.9253    77.213968    89.159704    81.466675     2007.515 
   48000   -1790458.1    36038.023    38095.339   -71646.035   -315.10465    678.33293    217.09815    77.199439    89.142927    81.451346    1997.2953 
   48100     -1790530    36605.707    39757.379   -71096.107   -389.52462     771.9792    202.49283    77.192941    89.135423    81.444489    2002.8525 
   48200   -1790529.1    36655.951    36300.228   -71423.754    361.30911    118.41915      55.4905    77.198648    89.142013     81.45051    1999.2668 
   48300   -1790548.4    36654.792    34980.482    -72163.11    889.62977     -571.454   -446.92111    77.210817    89.156064     81.46335    2000.2502 
   48400   -1790509.8    35927.617    35193.346   -73267.556   -275.40986    110.88992    783.79169     77.22075    89.167535     81.47383    1999.9867 
   48500   -1790414.6     33933.09    34778.098   -73126.318   -284.05629     276.8304    -364.6925    77.223982    89.171267     81.47724     2000.556 
   48600   -1790433.6    35538.508    35575.865   -73281.679   -40.018927    715.74994    305.94374    77.218943    89.165448    81.471924     2007.803 
   48700   -1790476.7    36408.658    36879.997   -71917.193    383.43776   -452.97906     26.57539    77.207625    89.152379    81.459983    2003.9214 
   48800   -1790481.3     37983.43     37235.09   -71376.998   -349.74249    605.58571     35.31916    77.198007    89.141272    81.449834    1988.8668 
   48900   -1790553.9    37511.365    37994.151   -71763.532    -54.27727    974.00628    360.45223     77.19514    89.137962    81.446809    1999.2312 
   49000   -1790474.3    36511.536    37205.806    -71710.78   -35.638024    919.69366    1119.9208    77.200191    89.143795    81.452139    1994.0428 
   49100     -1790454    35955.395    36668.832   -71916.576    144.07881     609.2133    198.25551    77.210425    89.155612    81.462936    2001.8752 
   49200   -1790465.4    35244.631    35134.455   -72852.444    242.19335    270.68433   -105.26045    77.220009    89.166678    81.473048     2010.855 
   49300   -1790456.1    33596.688    34271.361   -73369.653   -167.46256   -783.22396   -76.873364    77.224961    89.172397    81.478273    2006.5077 
   49400   -1790529.4    34035.932    35329.477    -72738.31   -156.94647    472.51249   -204.86274    77.220213    89.166914    81.473263    1999.8619 
   49500   -1790574.1    35770.441    36218.313   -72629.009   -1368.4789     11.60791   -741.48097    77.206303    89.150853    81.458588    2000.0567 
   49600   -1790503.9    38367.843    38127.608   -70194.196    35.452272   -277.66439    191.25204    77.192056    89.134402    81.443556    1994.0979 
   49700   -1790480.1    38240.834    38831.747   -69200.421    123.56411    218.07405    799.56439    77.189273    89.131188    81.440619    2004.4518 
   49800   -1790463.7    36918.925    38212.904   -70712.104   -492.79646    491.45143    221.53771    77.201224    89.144988    81.453229    2008.4565 
   49900   -1790471.8    34046.261    35299.308   -72853.624   -996.97698    615.53073    19.360151    77.220724    89.167505    81.473803    2001.6318 
   50000   -1790502.9    33576.721     32520.45   -74434.205   -165.71452     527.2494    187.05249    77.232281     89.18085    81.485997    1985.9033 
[...]
   87800   -1790519.6     34045.37    32803.432   -74448.655    169.55001   -820.94125    452.25692    77.232592    89.181209    81.486324    1996.7981 
   87900   -1790480.8    33154.321    33831.673   -75157.474    319.04001    332.39089     442.9823    77.232592    89.181209    81.486324    1991.8201 
   88000     -1790568    32586.334    31814.104   -75723.391   -638.36962    258.52665    379.63128    77.232592    89.181209    81.486324    1988.3187 
   88100   -1790565.2     33623.63    32384.089   -75198.193    84.205514    277.53812    416.28145    77.232592    89.181209    81.486324     2006.672 
   88200   -1790459.1    32448.634    34153.546   -74767.363    113.67495   -489.34303    612.61104    77.232592    89.181209    81.486324    1995.8169 
   88300   -1790459.2    33680.047     33463.35   -75035.966    177.74771   -235.03056      -74.944    77.232592    89.181209    81.486324    2005.5096 
   88400   -1790505.8    33921.575    33877.587   -74631.339   -228.19633    251.17453    661.87272    77.232592    89.181209    81.486324    2000.8291 
   88500   -1790402.9    34606.081    33485.944   -75202.737    618.18029   -490.95418    241.67546    77.232592    89.181209    81.486324    1992.9324 
   88600   -1790506.9     33238.82    33324.654   -75320.438    468.07707     512.0442    472.44223    77.232592    89.181209    81.486324    2000.9843 
   88700     -1790514    33380.267    32541.549   -74800.281   -861.57561    178.48599    511.58555    77.232592    89.181209    81.486324    1991.6716 
   88800   -1790521.2    33458.445    33717.087   -74266.036   -198.45595     185.6613    -2.811645    77.232592    89.181209    81.486324    2005.6653 
   88900   -1790424.4    33724.227     34533.75    -72804.41   -544.47305    645.49142   -240.94138    77.232592    89.181209    81.486324    2006.6327 
   89000   -1790537.6    33354.812    32315.485   -73386.078   -310.85056   -1100.1661    -72.15491    77.232592    89.181209    81.486324    1995.1765 
   89100   -1790502.5    33198.213    33844.336   -73927.136   -391.59917   -262.72069    340.55091    77.232592    89.181209    81.486324    2003.2255 
   89200   -1790485.2    33416.115    34000.804    -73937.02   -243.56032     463.1737   -1290.1521    77.232592    89.181209    81.486324    1998.1541 
   89300     -1790395    33496.083    33763.225    -73316.02    279.64673    479.35858   -91.015092    77.232592    89.181209    81.486324    2006.7246 
   89400   -1790448.4    32660.548    34532.981   -74426.072   -719.61698    994.00769    205.73007    77.232592    89.181209    81.486324    2019.3999 
   89500   -1790390.2    32917.427    34969.596     -74479.3    300.10655    400.17337   -731.44294    77.232592    89.181209    81.486324    1997.6643 
   89600   -1790517.6    33077.919    33967.154   -74988.778   -89.860675    96.460019   -700.57856    77.232592    89.181209    81.486324    2008.7443 
   89700   -1790482.4    33818.302    33448.836   -75001.076   -191.81854    125.46613   -226.78447    77.232592    89.181209    81.486324    1997.1343 
   89800   -1790392.8    34243.642    33775.927   -73355.753    16.328865    172.16673   -115.58334    77.232592    89.181209    81.486324    1989.2841 
   89900   -1790448.2    34536.644    32668.757   -74220.371   -789.21078   -265.85872    36.054818    77.232592    89.181209    81.486324    2003.2191 
   90000   -1790468.1    34598.429    32642.751   -74641.134    383.61496    91.163334   -545.29018    77.232592    89.181209    81.486324    2015.1265 
   90100   -1790369.3     33985.87    34633.441   -74320.954   -22.368377   -57.531219    481.43375    77.232592    89.181209    81.486324    2010.3184 
   90200   -1790562.9    33285.908    33224.406   -74847.233   -466.03976    18.752988    -88.08653    77.232592    89.181209    81.486324    2009.4313 
   90300   -1790603.5    33423.217    32273.848   -75030.567   -535.81326   -874.22502    115.51647    77.232592    89.181209    81.486324    1999.9988 
   90400   -1790446.4    33949.663    33298.098   -75362.854   -1133.2136    129.09688   -507.80608    77.232592    89.181209    81.486324    2004.0087 
   90500   -1790515.4    33444.576    33328.953   -74680.953   -931.64706    219.70265   -438.38665    77.232592    89.181209    81.486324    1994.7129 
   90600   -1790499.9    33238.132    34120.194   -74154.174    43.224561   -240.74854    -510.1928    77.232592    89.181209    81.486324    1998.4827 
   90700   -1790459.1    33652.255    32926.658   -74900.556   -10.159333   -376.23917    171.59508    77.232592    89.181209    81.486324    1992.8965 
   90800   -1790350.5    33444.991    34849.668   -74975.535   -387.88123    171.30951   -265.47747    77.232592    89.181209    81.486324    1987.8488 
   90900   -1790435.3    33988.118    34010.797   -74088.305   -31.949494    -487.4461   -153.19039    77.232592    89.181209    81.486324    2000.9073 
   91000   -1790407.7    32725.105     33518.21   -72829.363    11.388095     68.45434    150.71714    77.232592    89.181209    81.486324    1994.4103 
   91100   -1790493.2     31857.62    33256.187   -74140.364   -319.24436     253.8288   -310.12327    77.232592    89.181209    81.486324    1992.8515 
   91200   -1790460.6    32772.986    34076.165   -72940.294   -482.56766    515.06943   -397.39734    77.232592    89.181209    81.486324    1993.1242 
   91300     -1790431    33016.024    34788.716   -73867.876   -109.42293    627.77464    20.879127    77.232592    89.181209    81.486324    1997.8295 
   91400   -1790556.9    33260.964    32524.326   -74385.812   -654.32146   -205.62541   -788.12689    77.232592    89.181209    81.486324    2001.4016 
   91500   -1790375.5    33988.499    32835.172    -72966.63   -56.981956    -101.7223   -540.37022    77.232592    89.181209    81.486324    2003.8072 
   91600   -1790526.4    32892.681    32582.511   -74141.507   -165.97997   -503.65231   -345.93834    77.232592    89.181209    81.486324    1997.5869 
   91700   -1790495.5    33170.555    33451.943   -74646.507    -313.5098   -289.77246   -273.45172    77.232592    89.181209    81.486324    1996.5311 
   91800   -1790525.8    34526.836    33011.457   -74815.391    463.86684    539.91691   -339.35412    77.232592    89.181209    81.486324     1994.473 
   91900   -1790508.3    33532.462    33726.944   -74482.289   -116.80657   -56.476022    132.32559    77.232592    89.181209    81.486324     2007.928 
   92000   -1790509.1    34605.416    34616.977   -75413.715   -225.96955    740.64899    76.440163    77.232592    89.181209    81.486324    1999.6316 
   92100   -1790472.7    33201.103    32861.159   -75241.262   -152.80938    405.55041   -454.70499    77.232592    89.181209    81.486324    1996.8551 
   92200   -1790467.7    34882.899    34030.483   -74976.497   -249.26075   -750.94636    434.65688    77.232592    89.181209    81.486324    1998.6952 
   92300   -1790485.2    33520.009    33220.351   -74203.801   -121.90411    693.75899    41.780757    77.232592    89.181209    81.486324     1996.718 
   92400     -1790449     34405.68    33321.677   -73211.468    14.648776   -141.32898    87.990469    77.232592    89.181209    81.486324    2011.7541 
   92500   -1790377.5    33522.088     33064.56    -73933.05   -262.17989    145.32891    -99.62135    77.232592    89.181209    81.486324    1996.8606 
   92600   -1790430.2     33257.63    32261.472   -73357.293    72.906712    15.739117    148.65885    77.232592    89.181209    81.486324    1994.9823 
   92700     -1790469    34177.296    32997.792   -73787.703    411.31626   -492.23383    187.20172    77.232592    89.181209    81.486324    2002.5269 
   92800   -1790498.6    33635.018    32300.403   -74229.926    290.74083   -532.34806    -403.0529    77.232592    89.181209    81.486324    2001.6995 
   92900   -1790404.3     31769.98    33769.683    -73737.27    1303.5603   0.69130824   -186.20054    77.232592    89.181209    81.486324    1996.7196 
   93000   -1790468.7    34121.705     32527.68   -73727.735    901.05868   -511.07087    522.87538    77.232592    89.181209    81.486324    1992.9727 
   93100   -1790506.2      33108.8    32715.817   -74682.295   -1101.4007   -316.64597   -731.33168    77.232592    89.181209    81.486324    2005.0666 
   93200   -1790433.3    33684.632    34063.401   -74269.008    689.61058   -28.124405     1118.744    77.232592    89.181209    81.486324    2006.0595 
   93300   -1790406.9    33657.436    34352.859   -74167.601    1870.1652    98.264953    1159.5912    77.232592    89.181209    81.486324    2006.4919 
   93400   -1790474.4    34715.936    32179.704   -73692.944    407.02457    198.87097    381.39331    77.232592    89.181209    81.486324    1994.6622 
   93500   -1790484.6    33188.189    33242.617   -74469.547   -409.99248   -248.74425    99.611596    77.232592    89.181209    81.486324    2002.3026 
   93600   -1790486.4    32309.061    33910.971   -74304.577    531.82357    150.09335    474.34646    77.232592    89.181209    81.486324    1992.0472 
   93700   -1790376.3    35220.815    33610.389   -74839.775    1078.5984    243.51467    72.803477    77.232592    89.181209    81.486324    1991.3691 
   93800     -1790458    34257.556    33564.439   -75641.123   -164.68635   -600.50963    574.40388    77.232592    89.181209    81.486324    1989.5153 
   93900   -1790408.1    34420.556    34237.862   -75340.653    218.56323   -51.213212   -68.375826    77.232592    89.181209    81.486324    1995.3304 
   94000   -1790459.1    34052.823    33581.389     -75440.2    64.955582   -193.63937    258.77594    77.232592    89.181209    81.486324    1988.3993 
   94100   -1790443.1    34490.841    33219.219   -74708.489    439.04071   -191.66671   -109.15191    77.232592    89.181209    81.486324    2004.2062 
   94200   -1790506.3    34658.929    32247.568   -73487.366     435.6505   -724.94805    587.83049    77.232592    89.181209    81.486324    2000.5207 
   94300   -1790443.7    32532.605    33394.741   -74267.557    414.77325    545.39727    352.29661    77.232592    89.181209    81.486324    2000.4716 
   94400   -1790490.5    34642.533    34801.214   -73960.704    184.97049   -377.78681    402.71901    77.232592    89.181209    81.486324    2005.2846 
   94500   -1790408.2    34373.533    33009.446   -75562.121    12.611559   -660.34988    635.12588    77.232592    89.181209    81.486324    1996.2497 
   94600   -1790530.4    33956.807    33315.252    -74898.08   -617.88891   -100.84809    46.707666    77.232592    89.181209    81.486324    2004.5568 
   94700   -1790430.7    33263.292    32924.293   -75213.703   -575.03298   -358.71968    -4.200643    77.232592    89.181209    81.486324    1998.1301 
   94800     -1790420     34379.57    33826.583   -73725.836   -183.02319   -95.321063   -691.94042    77.232592    89.181209    81.486324    2005.7727 
   94900   -1790507.8    33996.537    33755.947   -73980.006   -710.49678     330.6054   -668.42563    77.232592    89.181209    81.486324    2013.4757 
   95000   -1790477.2     33443.81    33185.496   -75151.102   -230.74005   -141.28955   -380.46302    77.232592    89.181209    81.486324    1995.9802 
   95100   -1790384.5    34465.539    33206.119   -75140.767    137.08075   -197.37258   -312.79637    77.232592    89.181209    81.486324    2001.4314 
   95200   -1790499.9    32924.411    33571.405   -74661.537    652.32991    74.567814   -256.61177    77.232592    89.181209    81.486324    1991.1675 
   95300   -1790543.4    33247.652    32899.701   -75118.445   -503.02393    57.135614   -507.83265    77.232592    89.181209    81.486324    1995.7631 
   95400   -1790441.4    34172.642    32926.875   -74843.269   -83.079862    170.71814    1.9928771    77.232592    89.181209    81.486324    1991.4664 
   95500   -1790487.7    33047.779    34142.819   -74699.425     290.7474    758.58934   -623.77962    77.232592    89.181209    81.486324    2004.4459 
   95600   -1790526.9    33540.801    33229.261   -73740.073   -849.12128    631.96991   -189.51492    77.232592    89.181209    81.486324    2005.1229 
   95700   -1790442.4    34076.638    33123.752    -73073.52   -36.671937   -44.544623    201.86076    77.232592    89.181209    81.486324    2007.2122 
   95800   -1790497.9    33975.877    33119.492    -73216.04   -212.68326    -423.9741   -511.27307    77.232592    89.181209    81.486324     2005.192 
   95900   -1790471.9    33994.836    34140.085   -73528.612    246.46564    36.340501   -582.24728    77.232592    89.181209    81.486324    1999.1749 
   96000   -1790483.4    33710.608    34198.025   -73793.994    327.14112   -62.106476    -404.5439    77.232592    89.181209    81.486324    1998.5245 
   96100   -1790553.7    33843.519    32137.181   -74666.882   -324.09259    943.36788   -125.86825    77.232592    89.181209    81.486324    1996.5797 
   96200   -1790502.8     32790.77    33155.698   -75248.872   -665.31961    48.362003   -231.21277    77.232592    89.181209    81.486324    1996.7224 
   96300   -1790384.7    33499.871    34250.166   -74253.037    286.44386   -406.62735   -11.651432    77.232592    89.181209    81.486324    2013.5072 
   96400   -1790467.6    33836.998    33383.643   -73816.488    462.99935   -469.12668    861.13724    77.232592    89.181209    81.486324    2007.2301 
   96500   -1790521.6    33691.446     32020.23   -74962.738    22.593247    347.17633    399.81478    77.232592    89.181209    81.486324    2011.2015 
   96600   -1790470.5     32752.53    34786.354   -73945.037     282.4098    1063.6592    726.64127    77.232592    89.181209    81.486324    2007.0479 
   96700   -1790472.7    33144.584    34008.839   -74539.627    462.48205    271.61163    277.94422    77.232592    89.181209    81.486324    2013.5035 
   96800   -1790505.8    33450.526    33095.473   -74876.001    55.010996    292.67126    465.25642    77.232592    89.181209    81.486324    2007.0467 
   96900   -1790448.2    33858.899    34561.456   -73980.323     609.1054   -307.33911    726.30583    77.232592    89.181209    81.486324    1988.4944 
   97000   -1790550.9    32721.921    34695.366   -73672.305     -900.941    226.06451   -906.65572    77.232592    89.181209    81.486324    2003.6627 
   97100   -1790414.5    33729.556    34052.824   -73847.765   -656.55841    805.88731    -80.58677    77.232592    89.181209    81.486324    1990.7462 
   97200     -1790461    34029.918    32801.682   -74160.462    -64.84528    822.41585   -251.53599    77.232592    89.181209    81.486324    1988.5712 
   97300   -1790442.3    33350.463    33486.403   -74431.429    54.588273    794.47303    660.64626    77.232592    89.181209    81.486324    1997.1642 
   97400     -1790476    32800.452    33079.576   -74243.804    373.26589    544.61062     192.2299    77.232592    89.181209    81.486324     1993.575 
   97500   -1790485.4    34081.086    32762.172   -73490.807    475.45607    613.37503   -408.04694    77.232592    89.181209    81.486324    2011.8797 
   97600   -1790481.9    34838.139    32944.138   -74126.883    741.28997   -193.63982    285.72292    77.232592    89.181209    81.486324    1988.7797 
   97700   -1790501.4    33041.694     34615.98   -74601.981   -45.142071   -225.83199    104.52918    77.232592    89.181209    81.486324     1990.109 
   97800   -1790453.6    32880.159    32681.824   -74380.586    1432.1768   -743.84998     381.9257    77.232592    89.181209    81.486324    1997.0802 
   97900   -1790420.8    33197.606    33121.705   -73877.101     1108.092    189.99914    227.11088    77.232592    89.181209    81.486324    1986.9207 
   98000   -1790379.4     33674.08    34661.626   -73161.369     87.11363    762.13136    625.93513    77.232592    89.181209    81.486324    2010.3405 
   98100   -1790498.2    32654.454      33985.6   -74285.349    42.218018    278.39568    419.00755    77.232592    89.181209    81.486324    2004.9401 
   98200     -1790434    33826.623    33973.706   -74207.104   -4.7450617    78.090422    667.08214    77.232592    89.181209    81.486324    1984.8461 
   98300   -1790468.9    33629.298    33283.086   -73885.995    123.02511   -320.15376   -179.71998    77.232592    89.181209    81.486324    1988.9704 
   98400   -1790507.5    33383.865     33616.16   -74317.794    1078.9441    370.27506    193.24991    77.232592    89.181209    81.486324    2003.5322 
   98500   -1790406.6    33539.732    34091.925   -74732.703   -15.798282    312.20153    270.02008    77.232592    89.181209    81.486324    1998.8611 
   98600   -1790524.4    33085.417     33004.19   -74980.826    251.31224   -705.06707    33.584957    77.232592    89.181209    81.486324    1994.1049 
   98700   -1790491.2    33392.748     32805.25   -74835.184   0.30295998    234.29917   -72.454808    77.232592    89.181209    81.486324    1997.8641 
   98800   -1790396.7    33153.732    34325.367    -74293.89     896.7937    281.01776   -406.88661    77.232592    89.181209    81.486324    1998.3439 
   98900   -1790481.4    34350.775    32578.278   -74347.796   -168.81511   -789.83721   -104.21374    77.232592    89.181209    81.486324    2004.3693 
   99000   -1790438.1    32960.997    34005.073   -73840.661    236.26505    118.64363   -170.53873    77.232592    89.181209    81.486324    2005.0338 
   99100   -1790511.5    33473.924    32939.974   -75474.186    63.587527    570.77925    720.93993    77.232592    89.181209    81.486324    2012.2158 
   99200   -1790506.9    32762.385    33301.632   -74941.627     740.5908   -188.65738     216.7028    77.232592    89.181209    81.486324    1997.2028 
   99300     -1790396    33982.446    33350.947   -74865.804    1236.9804     214.7516     1273.205    77.232592    89.181209    81.486324    2000.0899 
   99400   -1790500.9    32639.167    32971.158   -74578.603    357.54676    271.52892    168.00682    77.232592    89.181209    81.486324    2012.7333 
   99500   -1790377.7    34833.861    33212.384   -73690.889   -472.26695   -484.43812    539.15599    77.232592    89.181209    81.486324    2001.6334 
   99600   -1790480.3    33251.584     33717.51   -74550.946    497.48401   -377.08934    42.590142    77.232592    89.181209    81.486324    1990.0964 
   99700   -1790462.3      33595.1    33598.739   -74499.869   -368.21917    426.54111    126.42724    77.232592    89.181209    81.486324    2003.3624 
   99800   -1790452.7    32979.903    32533.639   -74339.593   -528.96984   -134.01724   -768.49249    77.232592    89.181209    81.486324    1995.8293 
   99900   -1790391.1     33464.12    33823.289   -73412.612    26.019354    399.23583   -1436.6696    77.232592    89.181209    81.486324    1994.3828 
  100000   -1790465.4    33820.048    33480.356   -75223.792     1095.578    30.763819    -501.6264    77.232592    89.181209    81.486324    1999.7342 
  100028   -1790407.6    33258.875    33535.223   -73264.793    902.74154   -716.09785   -171.61153    77.232592    89.181209    81.486324    1994.6164 
Loop time of 5897.1 on 15 procs for 50000 steps with 58275 atoms

Pair  time (%) = 4289.68 (72.7421)
Kspce time (%) = 1378.44 (23.3748)
Neigh time (%) = 109.904 (1.86369)
Comm  time (%) = 85.9941 (1.45824)
Outpt time (%) = 0.533124 (0.00904044)
Other time (%) = 32.5577 (0.552097)

Nlocal:    3885 ave 3916 max 3826 min
Histogram: 2 1 0 0 0 3 0 1 5 3
Nghost:    18485.9 ave 18629 max 18370 min
Histogram: 3 3 0 0 3 0 1 2 1 2
Neighs:    1.47611e+06 ave 1.52238e+06 max 1.43308e+06 min
Histogram: 2 1 1 1 3 2 2 1 0 2

Total # of neighbors = 22141691
Ave neighs/atom = 379.952
Neighbor list builds = 1783
Dangerous builds = 0
unfix   2


write_data NPT_relaxed_2000.data
PPPM initialization ...
  G vector (1/distance) = 0.308765
  grid = 72 80 75
  stencil order = 5
  estimated absolute RMS force accuracy = 0.00179616
  estimated relative force accuracy = 0.000124736
  using double precision FFTs
  3d grid and FFT values/proc = 58144 28800

