
variable      mytemp equal  1400
# ------------------- Configuration ---------------------
read_data	CrO.dat
  orthogonal box = (0 0 0) to (77.301 89.2602 81.5585)
  1 by 5 by 3 MPI processor grid
  reading atoms ...
  58275 atoms

mass		1  15.9994
mass            2  51.9961

# -------------------- FORCE FIELDS ----------------------
pair_style buck/coul/long 10.0 10.0
pair_coeff    * * 1e-30 1e-30 0.0
pair_coeff    1 2 1204.18 0.3165   0.0
pair_coeff    1 1 9547.96 0.21916  32.0

kspace_style    pppm 0.0001



##-------------------- energy minimization ---------------

#compute   aE   all pe/atom
#min_style  fire

thermo          100
thermo_style    custom step pe pxx pyy pzz pxy pxz pyz lx ly lz temp

minimize      1e-8 1e-8 1000 1000
WARNING: Resetting reneighboring criteria during minimization (../min.cpp:168)
PPPM initialization ...
  G vector (1/distance) = 0.308704
  grid = 72 80 75
  stencil order = 5
  estimated absolute RMS force accuracy = 0.00180078
  estimated relative force accuracy = 0.000125057
  using double precision FFTs
  3d grid and FFT values/proc = 58144 28800
Memory usage per processor = 12.4981 Mbytes
Step PotEng Pxx Pyy Pzz Pxy Pxz Pyz Lx Ly Lz Temp 
       0   -1797379.3   -136346.86   -136350.64   -33589.325    61.399422    73.235858    73.781272       77.301      89.2602      81.5585            0 
      28   -1805569.3    -86113.38   -86162.384   -186537.16   -37.066666    56.551387     109.1216       77.301      89.2602      81.5585            0 
Loop time of 16.8123 on 15 procs for 28 steps with 58275 atoms

Minimization stats:
  Stopping criterion = energy tolerance
  Energy initial, next-to-last, final = 
        -1797379.27408     -1805569.29258     -1805569.30664
  Force two-norm initial, final = 821.914 1.35861
  Force max component initial, final = 16.7665 0.0293895
  Final line search alpha, max atom move = 0.0078125 0.000229605
  Iterations, force evaluations = 28 122

Pair  time (%) = 12.3655 (73.5502)
Kspce time (%) = 4.07779 (24.2548)
Neigh time (%) = 0 (0)
Comm  time (%) = 0.183076 (1.08894)
Outpt time (%) = 0 (0)
Other time (%) = 0.185959 (1.10609)

Nlocal:    3885 ave 3993 max 3775 min
Histogram: 6 0 0 0 0 0 0 6 0 3
Nghost:    18518.8 ave 18745 max 18293 min
Histogram: 6 0 0 0 2 1 0 0 0 6
Neighs:    1.45381e+06 ave 1.51056e+06 max 1.3872e+06 min
Histogram: 1 1 1 1 2 3 1 2 1 2

Total # of neighbors = 21807158
Ave neighs/atom = 374.211
Neighbor list builds = 0
Dangerous builds = 0

## --------------------- system relax --------------------
#dump          1 all xyz 100 xyz/all.xyz
#dump_modify   1 element O Cr

velocity      all create ${mytemp} 4928459 dist gaussian
velocity      all create 1400 4928459 dist gaussian
fix           1 all npt temp ${mytemp} ${mytemp} 0.1 iso 0.0 0.0 2
fix           1 all npt temp 1400 ${mytemp} 0.1 iso 0.0 0.0 2
fix           1 all npt temp 1400 1400 0.1 iso 0.0 0.0 2
run      50000
PPPM initialization ...
  G vector (1/distance) = 0.308704
  grid = 72 80 75
  stencil order = 5
  estimated absolute RMS force accuracy = 0.00180078
  estimated relative force accuracy = 0.000125057
  using double precision FFTs
  3d grid and FFT values/proc = 58144 28800
Memory usage per processor = 10.2481 Mbytes
Step PotEng Pxx Pyy Pzz Pxy Pxz Pyz Lx Ly Lz Temp 
      28   -1805569.3    -66050.36   -66132.077   -166582.89   0.33525796    94.416013    213.32156       77.301      89.2602      81.5585         1400 
     100   -1800422.7   -23918.583     -23448.5   -135262.96   -365.31444    70.011553    231.92712    77.124389    89.056266    81.372162    734.29521 
     200   -1800078.1    14364.914        15909   -103358.75     404.9031    516.00953    510.77107    76.827411    88.713342    81.058827    760.36163 
     300   -1799915.5    39137.469    40051.344   -82980.646   -92.892829    716.66011    567.74103    76.651383    88.510082    80.873105    847.00512 
     400   -1799377.3    49902.845    49198.717   -72861.454   -829.61064    214.29342   -75.691399     76.59616    88.446314    80.814839    900.98658 
     500   -1798895.2    48468.624    49116.234   -71009.974    581.02132    990.81875    468.14361    76.625144    88.479783     80.84542    971.46325 
     600     -1798315    44125.033    44078.494   -73436.332    47.865611    139.72508    128.74719    76.690667    88.555443    80.914552    1035.0882 
     700   -1797819.9    40917.412    40401.969   -75715.197   -289.28923    316.66849   -66.115093    76.750138    88.624115    80.977299     1113.956 
     800   -1797243.1    39202.076    39642.256   -76507.438    352.29671    328.14654    361.46713    76.790021    88.670167    81.019377    1181.8075 
     900   -1796714.3    39656.981    39929.334   -74742.984    683.77806    173.37772    191.52885    76.816774     88.70106    81.047604    1251.4096 
    1000   -1796174.8     40298.22    39659.825   -74090.909   -406.58923   -52.686538    559.51701    76.841836    88.729999    81.074047    1308.9002 
    1100   -1795732.9    40055.745    40572.029   -73820.419    321.88866   -90.774362   -64.221147    76.870566    88.763173    81.104359    1362.2146 
    1200     -1795459     37769.15    38829.051   -74658.298    1545.3667    248.06277    454.34451    76.900895    88.798195    81.136359    1410.8736 
    1300   -1795233.5    37261.597    36498.955   -75679.428   -174.20676    82.937472    392.21673    76.923572     88.82438    81.160284    1425.9103 
    1400     -1795237    36746.454    35838.878   -76569.924    635.46727   -11.993264    289.34143    76.932161    88.834298    81.169346     1416.293 
    1500   -1795477.8    35243.023    36319.554   -77666.393    588.58267    311.49299    315.25191    76.924844    88.825849    81.161627    1401.0436 
    1600   -1795585.9    36485.224    37102.468   -76202.874   -197.44294    435.15953    635.30309    76.904931    88.802856    81.140617    1377.5841 
    1700   -1795629.9    39475.999    38448.854   -74454.707   -140.14311     48.90125   -167.74737    76.885631     88.78057    81.120254    1379.9909 
    1800   -1795491.5    40513.641    39930.229   -73273.745    597.83803   -115.58389    382.45046    76.881153    88.775398    81.115529    1390.8363 
    1900   -1795413.3    38891.513    40048.556    -74032.76    174.67096    244.33066    279.59708     76.89415    88.790407    81.129242     1412.965 
    2000   -1795310.7    37098.914    37264.294   -75452.866   -349.06151    79.640446     -382.374    76.914347    88.813728    81.150551    1409.5093 
    2100     -1795459    36207.546    34236.926   -76555.543    683.88828    -264.0279     551.0562    76.924887    88.825898    81.161672    1411.4112 
    2200     -1795539    35432.796    35836.798   -76598.264    156.24403    77.208253    636.50921    76.917932    88.817867    81.154333    1394.0822 
    2300   -1795611.4    36942.092     37453.81   -75110.731   -1216.6728   -219.64701   -305.59295     76.89987    88.797012    81.135277     1390.627 
    2400   -1795529.2    39289.255    39087.943   -73822.392    229.33215     450.8009    785.02755    76.886927    88.782066    81.121622    1390.1868 
    2500   -1795447.4    39403.337    39654.916   -73462.117   -23.115935    132.89143    910.26524    76.889161    88.784646    81.123978    1401.9929 
    2600   -1795410.8    37406.509    38061.863   -74433.493   -460.68792    -433.7952    64.866654     76.90424    88.802058    81.139888    1411.2397 
    2700   -1795364.3    36345.919    36476.721   -76554.055    64.078202    397.95979    668.39683    76.918121    88.818086    81.154534    1400.0147 
    2800   -1795485.1    36108.417    35944.525   -76311.314    816.65597    93.815526    764.94532    76.919366    88.819524    81.155847    1398.1852 
    2900   -1795572.5    36419.521    35831.563   -76531.376   -83.589852    169.77203    351.26546    76.907747    88.806107    81.143588    1396.3429 
    3000   -1795543.7    38405.306    38380.942    -74682.12    160.26868     26.46081    691.59062    76.892662    88.788688    81.127672    1393.3716 
    3100   -1795516.8    39059.939    39627.706   -74120.944    132.20024   -289.64706    -303.8208    76.887555    88.782791    81.122283    1403.1023 
    3200   -1795473.1    38848.669    38415.685   -74763.494   -120.85566   -292.57835    704.67586    76.896528    88.793153    81.131751    1409.1399 
    3300     -1795435    38062.747    36101.265   -75536.678   -71.051721   -356.41292   -470.01358    76.910732    88.809554    81.146737    1405.8292 
    3400   -1795440.1    36277.721    36856.033   -76392.068    34.343114   -253.73734    11.898042    76.917336    88.817179    81.153705    1398.1478 
    3500     -1795501    36642.822    37081.525   -76227.445    105.92734   -528.18815    430.52652    76.911961    88.810973    81.148034    1396.4971 
    3600   -1795567.6    38722.156    36875.289   -75496.634   -9.7736664   -491.94326   -347.14363    76.899409    88.796479     81.13479    1401.0881 
    3700     -1795540    38785.872    39049.041   -74860.395   -118.66078   -91.545783   -14.158123    76.891219    88.787022     81.12615    1401.4529 
    3800   -1795524.9    37826.292    38831.597   -75585.295    41.441978   -179.59904    438.43939    76.894563    88.790883    81.129678    1408.3878 
    3900   -1795506.6    38163.055    36788.583   -75484.927    355.29738   -509.54437    3.0885163    76.905151     88.80311    81.140849    1410.5731 
    4000   -1795465.3    36727.269    36614.859   -76443.101    -507.4632    -263.6981   -98.298497    76.913992    88.813318    81.150177    1403.1084 
    4100   -1795449.4    37025.886    36690.552   -76114.188    187.13419   -94.666469    828.74451    76.913283    88.812499    81.149428    1395.7344 
    4200   -1795483.5    37702.897    37277.228    -74964.67    272.48464   -1058.1381    306.51237    76.905709    88.803754    81.141438    1395.3909 
    4300   -1795506.2    37921.502    37755.834   -75150.169    11.110042   -534.09382   -183.50468    76.898495    88.795424    81.133826    1397.2958 
    4400   -1795531.3    38436.214    38078.586   -74056.078    130.59002    52.269564     481.3426    76.896738    88.793394    81.131972    1403.7051 
    4500   -1795480.6    37177.912    37721.651   -75567.915    390.63424    58.877513     441.0569    76.902404    88.799937     81.13795    1401.5759 
    4600   -1795455.8    36416.015    36655.451   -75301.442     134.2667    461.58779    724.97041    76.909195    88.807779    81.145116    1401.1852 
    4700   -1795407.4    36032.465    37069.299    -75391.71    196.98543    722.18504   -189.19495    76.911092    88.809969    81.147117     1393.367 
    4800   -1795493.7    37119.166     36621.05   -74991.992    20.557346    76.035176    683.90475    76.906388    88.804538    81.142154    1401.4385 
    4900   -1795488.9    38382.089    37638.164   -74521.137     190.3215    -146.8268    525.95046    76.900607    88.797862    81.136055    1398.1331 
    5000   -1795516.5    38666.841    37762.791   -74332.748    -80.92078    439.69012    36.822477    76.898756    88.795725    81.134102    1401.2777 
    5100   -1795505.5    37325.814    38181.335   -74888.087    53.119106    181.61535     479.0084    76.901948     88.79941    81.137469    1401.1141 
    5200   -1795525.8    37183.213    35975.717   -76469.352   -222.91112   -225.77706    4.3118903     76.90627    88.804401    81.142029    1406.4619 
    5300   -1795459.3    37505.386    36901.634   -75091.165    350.22492    395.26712   -72.759326    76.906682    88.804878    81.142464    1400.7384 
    5400     -1795475    37797.181    37117.149   -75384.527   -227.41611   -428.50066   -69.090598    76.904969      88.8029    81.140657    1402.3063 
    5500   -1795476.5    37986.975    36643.453   -75239.182   -456.62106    382.51962   -533.22168    76.904264    88.802085    81.139913    1399.2349 
    5600     -1795496    37316.104    37554.556   -75514.027    249.86443    53.697106    496.85268    76.904671    88.802555    81.140342     1398.995 
    5700   -1795505.7    38017.111     36933.22   -75486.481   -856.41764    73.570476   -461.37946    76.903309    88.800982    81.138905    1399.6629 
    5800   -1795481.5    38419.508    38121.169   -74890.338   -133.23398   -432.68639    0.1962076    76.902058    88.799538    81.137586     1398.644 
    5900   -1795431.5    37971.092    37785.852   -75630.193   -369.30388    136.85812    500.53668     76.90308    88.800718    81.138664    1394.7741 
    6000   -1795459.6    37993.653    38053.829   -75755.495    581.06597   -123.65029    432.63407    76.905405    88.803403    81.141117    1398.8037 
    6100   -1795513.7    37625.224    36782.664   -75647.982    -326.5899   -488.04176    136.57357    76.906986    88.805229    81.142785    1404.8566 
    6200   -1795493.1    37555.235    36889.594   -75755.211   -263.62917   -431.21139    113.51822    76.905594    88.803621    81.141316     1400.997 
    6300   -1795486.3    37104.814    38182.032   -75504.112    178.46467    -84.31332   -44.245148    76.902412    88.799947    81.137959    1398.8671 
    6400   -1795488.5    37966.377    38308.526   -74970.731    6.7981744    40.515481    343.83986    76.900995    88.798311    81.136464    1398.3579 
    6500   -1795468.2    38150.156    37901.466    -75264.93    283.84842    -363.3078    116.39127    76.902632      88.8002    81.138191    1395.9222 
    6600   -1795510.6    37456.605    39123.749   -74956.708    187.21104    413.30438    158.81148    76.905377    88.803371    81.141088    1403.1479 
    6700   -1795450.8    36876.862    37499.574    -75056.73    155.85734    159.06583     270.7889    76.908171    88.806596    81.144035    1397.5325 
    6800     -1795468    37443.879    37298.044   -74719.109   -49.255765   -349.88251   -65.483938    76.906754     88.80496     81.14254    1399.5872 
    6900   -1795522.3     37446.35    37834.377    -75451.76    575.31822    74.820966    13.233344    76.903463     88.80116    81.139068    1404.4586 
    7000   -1795507.8    37644.781    38031.063   -75833.764    170.41114    849.88831   -299.07134    76.901588    88.798995    81.137089    1400.4248 
    7100     -1795541    37555.795    38111.979   -75485.233   -3.7849107    1094.2431   -514.66353    76.901273    88.798632    81.136758    1404.9292 
    7200   -1795519.6    37662.634    38414.734   -75517.627   -420.55522    326.54944   -244.91113    76.902837    88.800437    81.138408    1403.4255 
    7300   -1795527.9    37947.914    37423.054   -75862.727   -201.39216   -368.26003   -548.80804      76.9053    88.803282    81.141007    1406.6105 
    7400   -1795509.5    36853.359    37902.686   -75359.297   -125.90537   -292.21238   -91.190887    76.906353    88.804497    81.142117    1404.9145 
    7500   -1795537.5    36961.102    37358.351   -75565.331   -252.05909    124.00246       21.417    76.905685    88.803726    81.141413    1408.0281 
    7600   -1795500.1    38005.144      37032.1   -74651.353    120.49041    211.24516   -46.202351      76.9039    88.801665    81.139529    1401.5483 
    7700   -1795488.9    37099.708    38151.636   -74780.992   -310.39218    267.46984    310.48183    76.902272    88.799785    81.137811    1398.7116 
    7800   -1795501.1    37226.909    37105.458   -74679.339     11.82327   -85.344962    396.54693    76.902784    88.800376    81.138352    1400.2628 
    7900   -1795468.8    37502.745    38003.948   -74637.281   -202.85522     412.2503   -256.06863    76.903788    88.801536    81.139411    1396.9306 
    8000   -1795499.4    37498.406    37372.224   -75310.948    312.84995    167.30612   -454.66902     76.90463    88.802507    81.140299     1402.726 
    8100   -1795499.8    37161.593    37932.746   -75033.919   -219.90606    49.558987    -248.2208    76.905239     88.80321    81.140941    1403.4983 
    8200   -1795484.4    36207.573    37817.595   -75749.687    98.288929    392.13045   -29.849822    76.905688     88.80373    81.141416    1401.0597 
    8300   -1795488.7    37181.358    38196.496   -75842.477    459.82961    175.60733    112.21935    76.903936    88.801707    81.139567    1399.8814 
    8400   -1795487.9    38344.903    38041.032   -74938.007   -604.18313    321.59616   -580.06763    76.902985    88.800609    81.138564    1398.1117 
    8500   -1795463.2    37139.588    38161.901   -75570.256   -327.63405   -138.30571     245.0317    76.904153    88.801957    81.139796    1394.6378 
    8600     -1795479    38390.621    37706.262    -74716.65    66.611771    416.31001    276.11394    76.904737    88.802632    81.140413    1398.1819 
    8700   -1795498.4    37435.811     37960.06   -75922.424   -146.20907    113.14573   -208.41786    76.905158    88.803117    81.140856    1403.0461 
    8800   -1795441.9    38199.428    38149.678   -75448.394   -558.95861    125.27776   -625.15973    76.904653    88.802534    81.140323    1396.2657 
    8900   -1795458.5    38120.004    37210.953    -76037.39    336.43806   -344.98044    177.73043    76.904395    88.802236    81.140051    1397.1149 
    9000   -1795505.1    37619.561    38158.783   -76539.907    356.87097   -46.726931   -92.081053    76.903283    88.800952    81.138878    1400.5784 
    9100   -1795501.3    37553.711    37738.233   -75692.438    190.19641   -211.85093     418.3555    76.902467     88.80001    81.138017    1399.0192 
    9200   -1795501.4    38098.961    37392.517   -75208.959    320.57405   -57.523131    892.56338    76.901789    88.799227    81.137302    1400.5051 
    9300   -1795497.1    38191.772    36966.824   -75821.461    208.79466    287.21142    583.35561    76.903459    88.801156    81.139064    1401.8947 
    9400   -1795459.8    36459.084    37381.826   -75414.283   -403.23361   -109.47047    213.49099    76.905782    88.803838    81.141515    1397.8413 
    9500   -1795484.8    37758.885    37238.699   -75611.995   -317.85626     438.1317    51.053891    76.905759    88.803811     81.14149    1400.8072 
    9600   -1795452.9     37679.22      37758.1   -74636.643    -96.69789    -634.2607   -278.75761    76.903508    88.801212    81.139115    1394.9187 
    9700   -1795502.7     36718.02    38662.202   -74703.524     647.5676    566.15836    190.10902    76.902408    88.799943    81.137955    1401.2995 
    9800   -1795476.3    37576.535    37599.354    -75334.12   -435.10562    236.70365   -276.76733    76.903894    88.801658    81.139522    1397.8969 
    9900   -1795416.9    37972.807    37557.241    -75500.13   -107.03404   -14.475083    431.31554    76.905879     88.80395    81.141617    1390.1453 
   10000     -1795506    37061.385    37521.562   -75637.227   -158.90556    7.8856866   -335.80788    76.906629    88.804815    81.142408    1403.1604 
   10100   -1795484.3    37694.704    38186.212   -75455.561    140.86197    312.20702    -303.8521    76.903985    88.801763    81.139618    1400.4882 
   10200   -1795462.7    38284.095     38676.83    -75341.59   -427.48825   -157.43627   -230.79414     76.90165    88.799067    81.137155    1397.4578 
   10300   -1795511.7    37451.572    37644.413   -75780.388    73.392629    -410.3457   -460.35622    76.901576    88.798981    81.137076      1402.33 
   10400   -1795486.8    37939.178    37981.113   -75553.136    96.285138    86.778031     66.03771    76.903023    88.800653    81.138604    1398.7556 
   10500   -1795489.8    37174.545    37300.301   -75895.021   -432.92815   -224.98952    113.83454    76.905541     88.80356     81.14126    1399.7186 
   10600   -1795488.2    36980.191    37431.356   -75737.408   -143.41965    122.16387    60.543037    76.906525    88.804696    81.142298    1400.3338 
   10700   -1795462.1    37248.581     37327.82   -74992.407   -622.76404   -498.44435    205.99809    76.905337    88.803324    81.141045    1398.2976 
   10800   -1795491.9    37827.241    38551.539    -75174.36    55.490631     79.93782    540.98451    76.903396    88.801082    81.138997    1402.8534 
   10900   -1795522.6    38056.499    37335.484   -75054.104   -678.20479   -180.58671   -416.66268    76.903467    88.801165    81.139072    1405.8456 
   11000   -1795515.8    38205.426    37236.353   -74840.699    44.897127   -500.00112    108.35921    76.903895    88.801659    81.139523    1401.8134 
   11100   -1795526.1    36501.936    37597.385   -75301.071   -320.88407    59.177007   -149.29104    76.904275    88.802097    81.139924    1401.8802 
   11200   -1795522.7    37573.862    37289.187   -74854.085    5.9895566   -14.695364    247.01964    76.904079    88.801871    81.139717    1403.3239 
   11300   -1795497.8    38121.514    38034.533   -74483.369    -33.28262   -214.17045    374.78788    76.904115    88.801913    81.139756    1403.2714 
   11400     -1795429    37440.725    37310.489   -74866.587     445.5065   -246.17594    -8.006212     76.90473    88.802623    81.140404    1395.1868 
   11500   -1795475.9    37484.856    36828.199   -75104.824    -272.9566    314.50667     67.24818    76.904515    88.802375    81.140178    1400.4782 
   11600   -1795520.7    37240.619     37818.31   -75043.076    743.69452    76.525552    197.69071     76.90362    88.801341    81.139233    1404.2932 
   11700     -1795498    38500.285    36962.309   -74708.023   -384.92761   -369.78682    -72.93373     76.90293    88.800544    81.138505    1398.7667 
   11800   -1795503.4    37520.093    37291.156   -74885.736    727.76024   -211.42127    141.93062    76.903398    88.801085    81.138999    1399.2274 
   11900   -1795482.5    37900.161    37150.808   -75089.906    760.38247   -135.95076     726.3051    76.904568    88.802436    81.140234    1398.4617 
   12000   -1795481.4    37477.655    37883.474   -75210.562    535.37766   -217.92733    537.12387    76.905278    88.803257    81.140983    1401.5428 
   12100   -1795464.5    37675.524    36823.139   -75436.122   -504.84484   -519.76842    284.87467    76.904728    88.802621    81.140402    1400.1966 
   12200     -1795478    38498.091    37794.168   -74920.752    144.69856    275.88397    525.34608     76.90285    88.800452    81.138421    1400.6484 
   12300   -1795455.3    37789.997     38424.45   -75647.148    237.58969    68.106632     195.4344    76.902822     88.80042    81.138391    1394.3356 
   12400     -1795483    37690.348     38264.13   -75008.867   -36.596617   -41.057675     14.29177    76.902788     88.80038    81.138355    1395.8825 
   12500   -1795483.8    37008.905    37323.169   -74631.911   -82.268276    237.93057    11.826924    76.903838    88.801593    81.139464    1396.5661 
   12600   -1795445.1    36523.262    38001.338   -73977.568    337.33915    288.38078   -15.113724    76.904276    88.802099    81.139926    1394.5116 
   12700   -1795473.8    37446.926      37242.9   -74335.211    239.44506    328.37497   -346.09277    76.904092    88.801887    81.139732    1401.5431 
   12800   -1795496.4    37900.768      37291.1   -74466.564   -348.49472   -79.245113   -14.022639     76.90477     88.80267    81.140447    1404.5174 
   12900   -1795475.2    36630.059    37324.627   -74724.201    624.67618     796.9395   -23.446633    76.905419    88.803419    81.141132    1398.8849 
   13000   -1795486.8    37382.255    37215.166   -74872.812   -209.77657    56.080266   -541.67733      76.9034    88.801088    81.139002    1397.3078 
   13100   -1795505.4    37336.239    38536.909   -74040.851   -662.40102    553.76935   -45.268647    76.899833    88.796969    81.135238    1398.8956 
   13200   -1795491.6    37226.027    37832.214   -74103.913    413.75391   -251.79834   -157.20169    76.899891    88.797036      81.1353    1398.8305 
   13300   -1795501.7    37640.212    37242.465   -74752.639   -856.43478    357.76717   -148.76949    76.903522    88.801229    81.139131    1403.1229 
   13400   -1795450.7     37265.51    37016.478   -75352.896    235.19313   -138.68403    370.04962    76.908641    88.807139    81.144531    1397.9252 
   13500   -1795492.1    37147.731    37397.241   -75528.207   -342.91753   -70.038117   -588.30632    76.909543    88.808181    81.145483    1403.2611 
   13600   -1795457.1     37798.69    37001.962   -75485.905   -128.57393    214.46762     88.35818    76.905475    88.803483    81.141191    1396.0219 
   13700   -1795518.7    37350.398    37822.378   -74855.693    192.18542    -348.7016   -52.160586    76.899045    88.796059    81.134407    1402.7183 
   13800   -1795482.2     38159.07    38574.464   -74519.022   -337.64747    58.315861   -143.49832    76.895795    88.792306    81.130977    1397.2043 
   13900   -1795509.6    37518.106    38665.576   -75394.113   -494.62342    842.53521   -163.58014    76.899384     88.79645    81.134764    1400.8498 
   14000   -1795464.4     36835.65    36458.115   -75838.119     639.6505    246.81424    387.74916    76.907704    88.806057    81.143542    1395.9187 
   14100   -1795460.5    37526.725    37021.912   -76776.928    308.03497   -316.45116   -100.85811    76.911165    88.810054    81.147194    1397.6369 
   14200   -1795493.4    37538.722    37801.396   -75894.265   -288.56387    615.99773    50.401863    76.906255    88.804384    81.142014    1403.7428 
   14300   -1795483.3    37825.904    38136.491     -74621.9    357.12907    420.25166    431.10737    76.898935    88.795931     81.13429    1401.5141 
   14400     -1795560    38560.482    38254.983   -74582.224    619.40516   -1.0652834    1035.6895    76.895775    88.792283    81.130956    1408.5977 
   14500     -1795533    37445.017    37566.493   -75081.042    33.897411    970.00586    846.27819    76.900858    88.798153     81.13632    1401.6035 
   14600     -1795440    35890.935    36449.134   -75512.426    201.00075    111.47384   -145.95965    76.909548    88.808187    81.145488    1389.7235 
   14700   -1795464.6    36823.037    36318.262   -75046.435   -92.453253    572.33692    60.120194    76.911955    88.810966    81.148028    1397.8214 
   14800   -1795454.6    36972.767    37858.197   -74843.517    26.737759 -0.026271617   -430.94534    76.907206    88.805482    81.143017    1401.2007 
   14900     -1795505    37907.902    37409.549    -74474.58    -108.9936    361.53529     630.0308    76.900971    88.798283    81.136439    1407.3593 
   15000   -1795517.1    38331.908    37816.692   -74195.446   -182.90214   -205.27476    80.832244    76.898428    88.795346    81.133755    1404.0441 
   15100     -1795518    36957.306     38202.82   -74744.734   -209.91429    133.79504    204.34356    76.902055    88.799534    81.137582    1398.3954 
   15200   -1795558.7    36662.898    37058.127   -75607.761   -132.36988    667.73232   -87.865806    76.906523    88.804693    81.142296    1402.5422 
   15300   -1795522.1    37214.988     37041.29    -75991.41   -340.50937    120.44271    -412.9158    76.907276    88.805563     81.14309    1402.4874 
   15400   -1795462.7    37416.415     38922.22   -74999.351    20.582401   -72.330175   -684.94625    76.904188    88.801997    81.139832    1401.4519 
   15500   -1795470.5    37519.151    37582.671   -74771.703    146.38293   -191.68334   -96.633218    76.903043    88.800675    81.138625    1405.5348 
   15600   -1795501.5    37724.102    38470.224   -74693.781     80.52011   -63.488697   -467.98732    76.904142    88.801944    81.139784    1404.9366 
   15700   -1795539.7    37100.564    37420.192   -75177.673   -183.06369    69.494543   -417.15969    76.906947    88.805183    81.142743    1402.3289 
   15800   -1795506.5    37022.373    36661.143   -75291.314    103.35713   -247.04376   -106.20935    76.906268    88.804399    81.142027    1395.2202 
   15900   -1795505.5    37592.712     37878.97   -74494.734   -100.25599   -81.892146    220.15103    76.900765    88.798045    81.136221    1399.0348 
   16000   -1795435.5     38561.44    38501.396    -74319.89   -118.00057   -183.93342   -131.44474     76.89882    88.795799    81.134169    1396.6748 
   16100     -1795465    37792.435    38094.117   -75499.051   -168.06143     567.6081   -423.51586    76.903236    88.800898    81.138828    1404.2859 
   16200   -1795510.8     37389.94    37471.381   -76548.612   -464.32883    574.99937   -288.26107    76.907866    88.806245    81.143714     1407.321 
   16300   -1795496.9     36806.25    37440.579   -76128.266   -110.32323     859.8155    80.420747    76.908631    88.807128     81.14452     1398.637 
   16400   -1795554.9    37153.335    38328.937   -75782.605    289.33788    686.27145    -446.8225    76.904801    88.802705    81.140479    1402.5634 
   16500     -1795522    37576.562    38447.224   -75139.027   -101.15661    426.31418    -111.4372    76.898595     88.79554    81.133932    1399.7194 
   16600   -1795516.7    38050.179    38969.702   -74715.609    301.50981    748.40046    44.701148    76.895304    88.791739    81.130459    1404.4685 
   16700   -1795450.7    37635.058    38286.965   -74791.204   -130.77279    429.25179    65.594909     76.89948    88.796561    81.134865    1398.6049 
   16800   -1795476.7    37442.294    36938.932   -75302.728    50.969551   -124.83963     279.8576     76.90845    88.806919     81.14433    1402.0243 
   16900   -1795487.7    36717.211    36247.848   -76764.307    48.974276    363.55882    66.426334    76.916127    88.815784     81.15243    1400.6662 
   17000   -1795470.5    36527.473    37075.675   -75574.354   -88.950389     929.3052   -42.132787    76.914361    88.813744    81.150566    1396.4999 
   17100   -1795511.5    37734.563    38218.494   -75567.515    158.91492    146.99162   -20.998774    76.903093    88.800733    81.138677     1402.149 
   17200   -1795470.7    39508.781    38255.423   -73361.639       -61.73    300.59371    446.24789    76.892859    88.788915     81.12788    1397.6025 
   17300   -1795509.7    38289.301    39538.316   -73696.287   -444.84206    571.94578   -426.00418    76.894315    88.790597    81.129416     1402.652 
   17400   -1795504.1    37389.839    37440.828   -75180.706   -886.07403     189.5939   -438.59967    76.906789       88.805    81.142577    1400.5108 
   17500     -1795517    35926.909    36126.401    -76542.03    378.80547    153.04729    748.09776    76.917777    88.817689    81.154171    1402.4165 
   17600   -1795450.4     35872.12    35631.528    -75977.56   -351.87068    252.35599   -310.97641    76.915666    88.815251    81.151943    1396.7167 
   17700   -1795483.5    38093.803    36933.858   -75422.315    41.371554   -33.211914   -428.00838    76.902067    88.799548    81.137595     1404.242 
   17800     -1795499     39316.83    39535.268   -74581.227   -453.13875   -25.408156    280.61778    76.890664    88.786381    81.125564    1404.8277 
   17900   -1795526.3    39121.126    39150.188   -74537.428   -339.30437    84.362531    -29.42178    76.892023    88.787951    81.126998    1402.2138 
   18000   -1795518.3    37312.145    37647.088   -75298.341    120.27424    43.785238    279.63819    76.905055    88.802999    81.140748    1396.1595 
   18100     -1795498    35706.522    35322.661   -76624.457   -132.28069    283.46967   -227.22814    76.917027    88.816823    81.153379    1395.4934 
   18200   -1795440.8    36359.666    36118.816   -75642.766    448.04082   -73.771081    44.563851    76.915836    88.815447    81.152122    1396.7208 
   18300   -1795445.7    37975.468    38124.367   -74720.788    89.567093    280.71569   -127.13168    76.903585    88.801301    81.139196    1405.1607 
   18400   -1795429.6    39425.187    38449.152   -74115.532    13.493671    -192.8234   -14.329989    76.893273    88.789394    81.128317    1400.6725 
   18500   -1795498.9    38907.414    38491.066    -74214.44    193.86702   -296.60526   -142.58447    76.894322    88.790606    81.129424     1398.617 
   18600   -1795539.2    37128.796     37968.04   -75223.998    288.63909    75.740589   -292.14035    76.903504    88.801208    81.139111    1394.4603 
   18700   -1795518.7    37059.578    36312.137   -75872.753   -27.540566    978.10291    -293.6841    76.911163    88.810051    81.147192     1393.981 
   18800   -1795488.3    36746.722    37219.106    -75730.49    220.51887    621.69281   -251.81044    76.910353    88.809116    81.146337    1401.8014 
   18900   -1795411.2    38425.245    38573.952    -74936.29    355.54847   -75.504175    14.180549    76.903536    88.801244    81.139145    1401.5796 
   19000   -1795408.7    38217.334    38250.591   -74764.778   -143.14375    224.97645    20.805117    76.899589    88.796687     81.13498    1400.8662 
   19100   -1795469.4    37425.943    37915.997   -74948.684   -400.13309   -74.618115   -379.16721    76.901383    88.798758    81.136873    1397.6352 
   19200   -1795530.4    37121.726    36928.821   -75190.534   -48.099756    445.38048   -414.84502    76.904124    88.801923    81.139765    1394.7892 
   19300   -1795559.9      36959.3    37498.003   -76136.968    574.45887    283.20802    498.66283    76.904428    88.802275    81.140086    1397.3826 
   19400   -1795533.5    37354.777    37615.412   -74383.219   -261.78121   -89.173239     130.3754    76.901386    88.798762    81.136876    1402.9815 
   19500   -1795454.9    38170.978    38412.253   -73814.983     83.64112    264.95087    28.213613    76.900636    88.797895    81.136085    1403.8777 
   19600   -1795452.6    38124.099    38167.822    -75015.15     475.3771   -191.03426    441.71086    76.905292    88.803272    81.140997    1407.6765 
   19700   -1795469.8    36251.211    36640.404   -75718.388    -179.7848     273.9906    364.37224    76.912354    88.811427    81.148448    1403.3607 
   19800   -1795508.4    36730.614    36366.958   -76418.526    -456.8073    77.256339   -75.527058    76.913035    88.812213    81.149167    1397.7233 
   19900     -1795519    37470.215    37379.491    -75682.14    317.94906    21.017151    614.55888    76.904284    88.802108    81.139934    1394.5006 
   20000   -1795526.6    39128.753    37709.051   -75142.462    363.17519    116.24484    307.52001      76.8941    88.790349    81.129189    1399.4666 
   20100   -1795502.8    38884.152    39461.986   -74510.357    27.365948     31.72649   -459.76414    76.893303    88.789428    81.128348     1404.324 
   20200   -1795470.6    37793.828    37075.954   -75516.799    683.61649    220.93729    468.28251    76.905224    88.803194    81.140926    1404.6876 
   20300   -1795436.4    36643.328    36706.443   -76707.972    1093.7575   -40.020743     946.5758    76.919921    88.820165    81.156433    1397.7894 
   20400   -1795501.8    34895.378    35482.034   -77286.432    282.27327    332.10767    168.30104    76.922525    88.823171    81.159179    1401.5228 
   20500   -1795474.2    37627.339    36875.683   -75272.456    579.06215   -68.528152    51.595929    76.906319    88.804458    81.142081    1394.3124 
   20600   -1795567.2    39849.232    40562.629   -73428.538    -206.4604   -43.798661    303.61218    76.886363    88.781414    81.121026    1406.7352 
   20700   -1795557.2    39331.538    40086.901   -72793.257     1159.861    128.87255    110.32508    76.882574    88.777039    81.117028    1406.6885 
   20800   -1795519.6    37736.666     38423.28   -74329.919   -173.13856     342.5776    290.61432    76.899181    88.796215     81.13455    1402.6753 
   20900   -1795528.3    35024.308    35585.312   -77664.121     298.0454    473.06907   -597.37584    76.921801    88.822335    81.158416    1405.1608 
   21000   -1795484.3    34079.228     35416.82   -78004.466   -256.86575    662.29506   -257.71403    76.928826    88.830447    81.165827    1403.1111 
   21100   -1795489.3    36495.848    37297.871   -75583.611    148.22016    615.64883   -80.746179    76.912312    88.811378    81.148404    1407.2496 
   21200   -1795512.8    38944.612     39400.42   -73238.548     304.7649    1073.8576   -410.97667    76.889134    88.784615     81.12395     1408.569 
   21300   -1795504.9    40696.964    39791.424     -73320.3   -400.06931   -185.77311   -268.34183    76.881156    88.775402    81.115532    1399.2715 
   21400   -1795534.3    38041.508    39040.601   -75521.727    537.08502    215.83623    175.30754    76.894708    88.791051    81.129831    1395.6519 
   21500   -1795507.6    35604.494    36187.013    -76270.27     399.3347   -689.56226    220.51102     76.91582    88.815429    81.152106    1392.8516 
   21600   -1795532.8    35339.418    34984.707   -77129.804    684.21722   -107.52632    325.72516    76.924809    88.825809     81.16159    1407.2806 
   21700   -1795451.6    37153.958    35978.292   -76287.718   -143.23457    623.29781   -649.72895    76.914147    88.813497     81.15034    1407.6094 
   21800   -1795490.2    38535.311     38846.87   -75226.245     175.0199    -253.9337   -157.90829    76.895638    88.792125    81.130812    1414.1124 
   21900   -1795443.5    39761.479    40231.167   -73363.757   -133.25331    174.29878   -193.58175    76.886816    88.781937    81.121504    1395.9449 
   22000   -1795531.8     37958.14    38425.985   -75223.076   -442.95273    66.693852   -363.36827    76.896337    88.792931    81.131549    1393.8404 
   22100   -1795529.7    36949.865     36492.06   -75925.855    334.76273    711.75323   -207.54333    76.911591    88.810545    81.147643    1390.1601 
   22200   -1795504.7    36888.489    36290.552   -76560.955   -313.63236   -357.65154   -172.20543    76.916611    88.816342     81.15294    1397.9568 
   22300   -1795499.6    37445.114    37676.027   -75878.781   -47.971814    77.749877   -56.728323    76.907974    88.806369    81.143827    1411.8571 
   22400   -1795437.2    40318.948     38747.53   -75051.114   -123.31209   -1032.3662   -265.44059    76.898048    88.794908    81.133355    1408.7411 
   22500   -1795425.5    38483.127    38609.941   -75064.881    663.45316   -287.74786    -77.52748    76.897803    88.794625    81.133096    1398.0993 
   22600   -1795541.2    36663.979    36727.468    -75536.52   -349.93169     -558.848    458.17216      76.9046    88.802473    81.140267    1399.2465 
   22700   -1795549.1    36619.181    36368.238   -76271.657    430.87834   -256.61223    385.42232    76.907909    88.806294    81.143759     1393.959 
   22800   -1795536.4    37260.477    37404.443   -75460.243    26.757114   -214.67723    633.45557    76.902603    88.800168    81.138161    1398.5722 
   22900     -1795482    38993.797    38120.613   -74359.157    328.40088   -483.89247    365.21432    76.895449    88.791906    81.130612    1403.7425 
   23000   -1795490.1    39363.499    38224.774    -74741.01   -65.814955   -330.79249   -54.248941    76.895486    88.791949    81.130651    1410.7448 
   23100   -1795464.4    37977.966    38170.142   -75449.436    -284.5088   -577.29309   -505.82748     76.90478    88.802681    81.140457    1402.8287 
   23200   -1795487.1    36882.653    36228.215   -77001.233     248.8041   -412.54975   -262.68792    76.915185    88.814696    81.151436    1395.9609 
   23300   -1795511.7    36585.445    35827.064   -76910.977    89.776911   -902.49755    -245.5705    76.913732    88.813018    81.149902    1394.5179 
   23400   -1795480.8    38414.947     37838.01   -75368.939    -185.2772   -501.26614   -309.57609    76.900621    88.797879     81.13607    1394.8591 
   23500   -1795452.1    39946.871    39189.838   -74044.297    618.10524   -928.40356    260.09038    76.889924    88.785526    81.124783    1398.1937 
   23600   -1795499.1    39787.171    38312.243   -73593.281   -107.69774   -303.17653    3.1471243    76.893186    88.789294    81.128225    1407.4724 
   23700     -1795444    37465.035    35699.458   -75570.904    468.17076   -277.65386    518.30347    76.909015    88.807571    81.144926    1396.5417 
   23800     -1795560    35213.862    35544.346   -76712.834    346.88402    25.433715    188.70703    76.919634    88.819833    81.156129    1406.5329 
   23900   -1795481.3    37060.727    35692.447    -75627.37    305.00243   -676.93813   -23.809965    76.914335    88.813714    81.150538    1395.2039 
   24000   -1795476.6     38132.21    37383.985   -74118.762   -135.02396   -252.41483    193.08264    76.898075    88.794939    81.133383    1398.5621 
   24100   -1795487.1    39037.673    39013.446   -73196.187    663.54926   -623.88864    151.51051    76.887022    88.782176    81.121721    1403.3528 
   24200   -1795493.4    40030.108    37703.292   -73370.985    222.04215   -21.202294    55.379524    76.892134    88.788079    81.127115    1401.6814 
   24300   -1795505.7    37157.854    36146.619   -74848.306     713.6621   -522.44591    393.16647    76.908955    88.807502    81.144863    1398.8086 
   24400   -1795490.8    35325.298    35050.046   -76352.565    189.07099    227.22635    762.65266    76.920205    88.820493    81.156732    1395.6345 
   24500   -1795483.3     35992.23    35935.281   -76011.331    655.33599   -643.98252    650.60794    76.915358    88.814896    81.151618     1399.853 
   24600   -1795450.9    39514.667    37609.785   -73930.903    127.91922   -640.25231    302.96221     76.89974    88.796861     81.13514    1401.8743 
   24700   -1795504.3     39504.13    38897.716   -73083.942   -229.55802   -602.77321    119.57229    76.889732    88.785305    81.124581    1408.2469 
   24800   -1795499.9    37289.924    38580.563   -74107.231    471.30027   -148.71547    661.99676    76.895463    88.791922    81.130627    1400.1806 
   24900   -1795513.2    37367.042    36844.073   -74981.874    263.92819   -514.38613    545.06235    76.907616    88.805955    81.143449    1395.2465 
   25000   -1795522.3    36586.346    35812.411   -76080.545    216.59065    126.68284   -270.79602    76.914985    88.814464    81.151224    1397.4282 
   25100     -1795487     36821.04    36119.313   -75519.169   -387.82806   -319.51673    136.41318     76.91126    88.810163    81.147294    1401.6493 
   25200   -1795457.7     37909.82    38177.015   -73802.668     31.69758    227.18473   -518.17412    76.901724    88.799152    81.137233    1404.7024 
   25300   -1795431.7    38647.666    38574.769   -73302.412   -646.18321    300.94509   -334.54605    76.896189    88.792761    81.131393    1399.5055 
   25400   -1795525.7     37745.28    37175.636   -74031.339   -1094.6977    126.61629   -625.09773    76.900129    88.797311     81.13555    1403.2197 
   25500   -1795501.7    36313.551    37362.897   -74637.057   -170.34815    558.25222   -621.42749    76.907421    88.805731    81.143244    1393.7742 
   25600   -1795491.3    36284.666    36492.875   -75902.114    147.12029    231.67627   -173.28494    76.910792    88.809623      81.1468    1395.4824 
   25700   -1795462.4    37834.847    36859.127   -74634.113   -305.95384    102.43263   -575.60112    76.906173    88.804289    81.141927    1401.5482 
   25800     -1795435    38437.091    37986.002   -74013.502   -205.94643     312.1873   -189.11093    76.899676    88.796787    81.135072    1401.9002 
   25900   -1795478.9    38293.097    37997.875   -74288.124   -417.78408   -344.33403   -655.08093    76.898875    88.795863    81.134228    1404.6894 
   26000     -1795489    37270.664    36929.787   -74874.012    300.64995    170.74796   -887.95498    76.903573    88.801288    81.139184     1401.551 
   26100   -1795510.9    37589.886    36572.627   -76046.483    203.38866   -781.40587   -165.41924    76.908854    88.807385    81.144756    1400.4498 
   26200   -1795458.7    36720.044    36881.867   -75813.825   -243.38035   -384.36105   -292.21209    76.908888    88.807425    81.144792    1390.6089 
   26300   -1795533.1    37856.164    37035.239   -75019.833    152.58125     391.4959    -266.1036     76.90341    88.801099    81.139012     1401.935 
   26400   -1795479.3      38415.7    37713.403   -74674.504    131.17622     226.6896    142.53373    76.899252    88.796297    81.134625     1403.395 
   26500   -1795450.7    38620.042    37851.023   -74550.787   -203.35013    22.143801   -421.23619    76.899934    88.797086    81.135345    1403.2259 
   26600   -1795528.1    37051.653    37852.559   -75891.188   -112.72089   -56.817549   -905.42749    76.905544    88.803564    81.141264    1408.5314 
   26700   -1795553.9    36604.771    37126.385   -76004.286    26.542037     193.2569    40.922385    76.909685    88.808345    81.145633    1402.1266 
   26800   -1795535.5    37562.444    36803.368   -76535.517    276.82343   -192.24471   -297.11276    76.907906     88.80629    81.143755    1398.9375 
   26900   -1795540.6    37755.652    37857.681   -75547.896    485.59008   -298.41141   -282.09889    76.901504    88.798898    81.137001    1403.6307 
   27000   -1795466.9    38660.025     38878.51   -75078.405    303.49015    472.25144    210.27537    76.896397    88.793001    81.131612    1396.3051 
   27100   -1795479.7    39340.775    37377.507   -74731.536   -70.934098    -995.3621    478.71747    76.897245     88.79398    81.132507    1399.0418 
   27200     -1795494    38045.859    37701.732   -75957.974   -221.31123   -10.236547    153.41494    76.903443    88.801137    81.139047    1401.4264 
   27300     -1795479    37002.892    36475.112   -76399.387    612.59307    13.263536    34.733082      76.9106    88.809402    81.146598    1396.6635 
   27400   -1795533.7    36325.115    37133.026   -76986.081    67.860634    128.59492    21.938364    76.911736    88.810713    81.147796    1398.8545 
   27500     -1795489    37664.174    38555.946   -75307.686   -793.07509    593.46407    190.79032    76.903886    88.801648    81.139514    1393.2895 
   27600   -1795428.2    39464.764    38971.812   -75443.775    552.16293     257.1495    436.27112    76.894488    88.790797    81.129599    1393.8359 
   27700   -1795472.9    38241.657    40264.369   -74898.536    284.23604     762.4152    613.13886    76.893995    88.790228    81.129079    1404.6526 
   27800   -1795499.5    37024.704    38277.834   -75817.446   -1001.2834    697.47899    142.61895    76.904716    88.802608     81.14039    1404.8076 
   27900   -1795535.4    35687.267    36221.343   -77668.843    628.42695    -147.5738    326.51897    76.915666    88.815251    81.151943    1396.1239 
   28000   -1795532.4    36207.456    35858.403   -77005.442    441.42947     336.0534    643.15297    76.913698    88.812978    81.149866    1395.5044 
   28100   -1795569.6    36734.819     38138.48   -75671.897   -168.21567    930.37611    96.093697    76.899701    88.796816    81.135099     1407.039 
   28200   -1795445.4    39382.086    40082.099   -73576.401   -727.78455   -173.86275    331.82377     76.88838    88.783743    81.123154    1395.7061 
   28300   -1795499.8    38695.524    38447.256   -73749.676    673.34705    128.73496    208.62499    76.892167    88.788117     81.12715    1403.4678 
   28400   -1795496.8    36831.858    36820.902   -75574.593   -493.63604   -271.43239   -267.79111    76.907304    88.805596    81.143121     1396.023 
   28500   -1795562.2    34664.494    35492.966   -76841.653    396.71056    198.62183    516.76285    76.917947    88.817885    81.154349    1394.4471 
   28600   -1795501.4    36131.474    36486.028   -75714.799   -85.856408     596.0045   -293.34964    76.910559    88.809354    81.146555    1392.2172 
   28700   -1795516.7    37913.346    38486.254   -74412.433   -342.05932    184.25805   -44.014952    76.894749    88.791099    81.129874    1401.1919 
   28800   -1795503.4    39170.264    40214.643   -73609.869    237.64009    550.34019   -131.80984    76.886812    88.781934      81.1215     1401.582 
   28900   -1795548.8    38211.943    38840.104   -74210.523   -143.83239    189.43529    176.36154    76.895435     88.79189    81.130597    1407.2741 
   29000   -1795532.1    36154.366    36163.406   -75768.552    158.76499   -554.44605    160.98996     76.91281    88.811953    81.148929    1402.7652 
   29100   -1795515.3    35304.808    35872.854   -77314.206    -125.6264    67.130302   -302.23924    76.921367    88.821834    81.157958    1399.4112 
   29200   -1795480.7    36476.282    36767.747   -76548.446     -182.366   -152.75258    327.30197     76.91259      88.8117    81.148698    1399.6619 
   29300   -1795480.8    38481.247    38841.271   -74319.009    170.30312   -70.558982   -255.00367    76.896267    88.792851    81.131475    1407.2764 
   29400   -1795462.4    39109.185    38747.546   -73247.146   -149.15735   -66.288588    488.00351    76.889527    88.785068    81.124364    1404.1094 
   29500   -1795522.7    38654.942    38040.537   -73923.412   -335.45625   -96.336013   -312.97881    76.898174    88.795053    81.133488    1399.4827 
   29600   -1795491.3    36140.382    36083.154   -76558.267     503.4843    -18.73298    71.267385    76.913542    88.812799    81.149702    1392.5914 
   29700   -1795482.8    35838.021    35258.794   -77295.762   -267.45687   -336.23573   -2.0546872     76.91799    88.817935    81.154395    1396.8551 
   29800   -1795465.6    37904.969    37866.989   -75877.745    243.78188    289.90063    644.85859    76.906866     88.80509    81.142658    1401.3877 
   29900   -1795467.2    38554.007    39488.279   -74414.726    694.85345    235.08784    863.70875    76.893547     88.78971    81.128606    1402.6871 
   30000   -1795474.7    39074.294    38570.048   -74461.212    380.97768   -280.82828    1005.6187    76.891069    88.786849    81.125991    1395.3305 
   30100   -1795501.6    37890.047    38798.627   -75059.426   -44.365496   -78.388414    349.45098    76.898668    88.795623    81.134008    1386.9241 
   30200   -1795525.4    36280.252    37306.023   -75621.293   -85.845598    659.40904    499.57899    76.908232    88.806667      81.1441     1394.023 
   30300   -1795468.3    37187.503    36339.763   -75915.279    275.27795    220.99043     564.4911    76.910795    88.809627    81.146804    1395.6822 
   30400   -1795532.1    37509.436     37341.05   -74938.658    43.665426   -348.73331    44.436457    76.905339    88.803327    81.141047    1410.4966 
   30500   -1795447.8    38405.204    38357.528   -74242.572   -377.48716   -200.64477     506.6776    76.898114    88.794983    81.133424    1399.7221 
   30600   -1795552.6    38561.023    37559.201   -74686.587    412.48643   -533.47534    593.14846    76.896418    88.793025    81.131635    1405.4922 
   30700   -1795557.5    37636.763    36943.086    -74947.66    130.49398    11.493333   -45.027676    76.900781    88.798063    81.136238    1396.9905 
   30800     -1795510    37188.171    36069.785   -75549.855   -295.82132   -414.99584   -103.53877    76.906214    88.804336     81.14197    1394.3693 
   30900   -1795520.8    37521.244    37072.013   -75473.243    183.55655   -549.91961    790.49778    76.907391    88.805696    81.143213      1401.92 
   31000   -1795465.9    38450.202    36563.588   -75337.583    191.49406   -712.50564    237.60432    76.905907    88.803983    81.141647    1398.2135 
   31100   -1795535.8    37476.153    38186.904   -75663.688   -188.48664   -147.48613    72.162018    76.902564    88.800123     81.13812    1408.6648 
   31200   -1795509.7    38774.341     37966.98   -74691.603    309.63223   -402.63455   -37.079728    76.899865    88.797006    81.135272    1402.6292 
   31300   -1795485.7    37998.254    37880.251   -74917.415   -258.05684   -989.11222    739.76756    76.900504    88.797743    81.135946    1388.1573 
   31400     -1795539    37072.284    37282.578   -74657.364    364.77593    35.385509    857.40252    76.901556    88.798958    81.137056    1393.9205 
   31500   -1795478.3    36780.388    38201.202   -74091.832    63.146798    83.823258    23.468624    76.901959    88.799423    81.137481    1395.8389 
   31600   -1795429.4    37269.113     38513.94   -74675.928    188.50541    -14.72686    298.55664    76.904377    88.802216    81.140032    1394.7641 
   31700   -1795447.8     37514.48    37198.037   -75311.044   -210.19247    235.88822    71.462141    76.907821    88.806193    81.143666    1396.6871 
   31800   -1795489.7    37016.891    37603.625   -76026.995   -76.492271   -305.40322    188.01197    76.908718    88.807228    81.144612    1399.9391 
   31900   -1795509.3    37917.635    38194.581   -76126.522    47.932764     68.42565   -379.39832    76.904617    88.802493    81.140285    1394.1304 
   32000   -1795522.3    38151.307    38758.115   -75500.369   -265.74517   -108.73058   -403.55718    76.897761    88.794576    81.133052    1389.2392 
   32100   -1795537.2    38311.571    38958.229   -75499.185    291.86037    236.18106   -410.43963    76.894378     88.79067    81.129483    1398.9479 
   32200   -1795479.8    38689.259    37768.727   -75150.442   -208.41167    188.01234    115.47956    76.899171    88.796204    81.134539    1399.9976 
   32300   -1795455.5    37561.964    36385.426   -75577.511    392.28652    -596.6092    248.53429    76.908995    88.807548    81.144904    1397.1638 
   32400   -1795473.1    36700.572     36257.23   -77202.365    60.694557    -110.1463   -716.45039    76.915239    88.814758    81.151493    1398.1914 
   32500   -1795527.8    35597.462    36723.606   -75924.323    118.64915    91.280795    457.24344    76.911206    88.810101    81.147237    1404.0603 
   32600   -1795543.7    37898.646    38118.956   -74544.881    -371.2527   -77.900149   -325.83411    76.899342    88.796402     81.13472    1404.3456 
   32700   -1795496.6     39497.74    38504.954   -73390.314   -50.110672   -413.83758   -427.66005    76.891095    88.786879    81.126019     1396.251 
   32800   -1795472.1    38558.132    39016.394   -74202.824   -23.086124    347.17222   -149.33419    76.893703    88.789891    81.128771    1393.0973 
   32900   -1795487.4    37452.955    37901.332    -75787.65   -121.19161   -133.84819   -62.529073    76.904636    88.802514    81.140305     1400.028 
   33000   -1795482.2    36692.406    36056.605   -76872.731    121.40034   -332.44304   -502.23807    76.914352    88.813733    81.150556    1407.6075 
   33100   -1795431.9    36801.563    37688.914   -76903.688    379.27957    110.55779    109.04685     76.91304    88.812219    81.149172    1402.7709 
   33200   -1795466.3    37609.161    38501.034   -75827.471    304.99076    90.014964   -23.688015    76.902263    88.799774    81.137801     1395.661 
   33300   -1795495.4    39251.805    39039.856   -74937.798    42.276102    82.860921   -363.56285    76.891251    88.787059    81.126183     1392.505 
   33400   -1795489.3    39524.545    39305.237   -74795.312    34.054476   -231.39923    149.16509    76.889775    88.785355    81.124626    1393.9257 
   33500   -1795441.4    37792.927    38985.684   -74310.776    237.92399   -250.00879    122.79979    76.900567    88.797816    81.136013    1394.4983 
   33600   -1795450.8    36690.224    36453.735   -76497.733    1048.3546   -319.38391    224.13774    76.916462     88.81617    81.152783    1402.3155 
   33700     -1795421    35353.571    35292.405    -76446.93   -280.38431   -527.14261   -170.15189      76.9222    88.822796    81.158837    1401.2339 
   33800   -1795442.6    36972.688    36652.537   -76091.833   -484.32596   -235.92694    -433.4043    76.913617    88.812885    81.149781    1405.3172 
   33900   -1795447.6    39322.789    38662.517   -74623.201    694.96443   -85.005722    501.98848    76.898801    88.795777    81.134149    1397.4618 
   34000     -1795539    38905.209    40097.463   -74174.877    224.92565   -372.95501    226.61039    76.889537     88.78508    81.124375     1400.984 
   34100   -1795539.8    38591.293    38694.465   -74818.872   -632.37156    464.17136    366.30125    76.892804    88.788852    81.127822    1397.8869 
   34200   -1795507.1    37541.728    37230.226   -75055.342    292.35643   -778.61995   -86.872318    76.905366    88.803357    81.141075    1398.0431 
   34300   -1795504.1    36517.594    35822.339   -75381.111   -135.16734   -587.32156   -45.790905    76.916711    88.816458    81.153046    1409.2078 
   34400     -1795449    35618.158    36012.125   -76658.114   -167.92118   -181.74766   -85.318576    76.917049    88.816849    81.153403     1403.008 
   34500   -1795506.7    38354.034    37116.797   -74831.406    -60.49704    -200.3988   -263.53666    76.905642    88.803676    81.141367    1406.0337 
   34600   -1795526.5    39421.939    37803.555   -74312.413    43.637979   -347.24302   -92.912714    76.894063    88.790306     81.12915    1402.9534 
   34700   -1795527.5    38340.224     38539.25   -73266.982    524.83076    365.31778   -31.162892    76.892511    88.788514    81.127513     1400.254 
   34800   -1795544.1    37927.843        36937   -74742.718   -302.81698   -235.01276   -737.20768    76.901798    88.799238    81.137311    1403.1573 
   34900   -1795481.7    36685.817     35859.22    -75965.14   -266.26842    -1.672554   -355.15222    76.912797    88.811938    81.148916    1396.9729 
   35000   -1795479.8    36611.755    36874.376    -75241.05    -348.0034   -229.75899    70.913479    76.915039    88.814527    81.151282    1401.0257 
   35100     -1795506    36749.295    37359.793   -74972.192    324.59438   -131.70536    170.76628    76.907933    88.806321    81.143784    1408.4794 
   35200   -1795469.2    38346.143    38488.294   -74056.554   -241.93746    176.75771   -287.84042    76.899094    88.796115    81.134458     1406.071 
   35300   -1795446.2    39438.492    38242.441   -74151.563   -402.03358    -263.4205   -207.82754    76.897668    88.794468    81.132953    1398.7803 
   35400   -1795515.4    37585.919    36866.674   -74669.463    142.75848   -66.320278    131.35668    76.903745    88.801486    81.139366       1398.4 
   35500     -1795490    35633.329    36924.631   -75519.406    298.32106    177.07848    158.00949    76.909591    88.808237    81.145534    1393.1102 
   35600   -1795487.7    36697.512    37456.562   -75161.376    538.51159    202.02073    317.08158    76.908663    88.807164    81.144554    1400.0971 
   35700     -1795450    37758.868    37272.357   -75032.235    -210.9584    392.62378    101.15036    76.903419     88.80111    81.139022    1403.3855 
   35800   -1795430.9    38339.688      37653.8   -74723.335    399.92671   -222.94903    219.33749    76.898909    88.795902    81.134263    1399.3815 
   35900   -1795486.4    38274.586    38551.114   -75810.675    182.17489   -116.15121   -303.02166    76.898587     88.79553    81.133924    1402.7905 
   36000   -1795485.3    37567.416    38205.818   -74951.615    499.08699    231.52793    222.73277    76.903169    88.800821    81.138758    1398.5403 
   36100   -1795493.9    37621.725    36747.212   -75525.859   -774.25114   -129.68232   -257.38382    76.907726    88.806083    81.143566     1397.025 
   36200   -1795525.2     36478.72    37282.891   -75997.565     229.2317    138.04452    147.50237    76.908229    88.806664    81.144097    1403.6234 
   36300   -1795442.3    38071.673    38286.544   -74964.329    85.657246   -289.42774   -385.89072    76.903828    88.801582    81.139453    1403.8666 
   36400   -1795454.6    38855.897    38663.214    -74427.92   -1243.9413   -716.59153   -1100.9773    76.901075    88.798403    81.136549    1406.9012 
   36500   -1795503.5    38535.426    37697.502   -74881.722   -246.22033   -56.175254    200.44123    76.903549    88.801259    81.139158    1403.5107 
   36600   -1795472.3    36808.877    37423.185   -75091.999    742.43323    389.86544     369.6628    76.906648    88.804839    81.142429    1394.2297 
   36700   -1795491.6    37381.811    37638.513   -75753.814    -608.9859   -674.95528   -337.40422    76.906029    88.804124    81.141776    1397.4554 
   36800     -1795480    37886.143    37514.394   -75541.196   -660.91056   -83.948477   -186.39708    76.902593    88.800156     81.13815    1400.0924 
   36900   -1795437.5    38483.995    39236.957   -73874.516     496.3076    153.67013   -198.84043    76.899621    88.796724    81.135015    1405.0639 
   37000   -1795428.1    38671.762    38358.182   -74768.386     60.32753   -33.016874   -21.884978    76.903457    88.801153    81.139062    1408.2869 
   37100   -1795433.8    37300.508    37186.357   -76002.476    -727.7528    375.60554    58.761565    76.911507    88.810449    81.147555    1396.4105 
   37200   -1795495.6    36493.316    36738.311   -77277.404    250.96856    215.85053   -555.34321    76.915244    88.814764    81.151498    1400.2892 
   37300   -1795486.8    35542.249    37134.505   -76240.757    573.85154     540.6964   -248.20983    76.909331    88.807936    81.145259    1398.9451 
   37400   -1795534.6    37818.413    38472.064   -74657.178    57.212373    739.37449   -214.34301    76.896945    88.793634    81.132191     1406.709 
   37500     -1795453    40067.318    39004.091   -74144.299    70.891941    101.81877    235.98731    76.889434    88.784961    81.124267    1396.7482 
   37600   -1795515.1    38673.572    38770.798    -75168.99   -780.65994    621.51548   -894.38042    76.895338    88.791778    81.130495    1402.1912 
   37700   -1795481.2    37129.642    38016.561   -75524.549    188.10533    193.17841   -352.91373    76.908392    88.806852    81.144269    1390.5907 
   37800   -1795488.5    35628.085    35174.573   -76521.678   -699.00195   -147.72708    76.966214    76.915148    88.814653    81.151396    1391.3149 
   37900   -1795451.2    37738.794    36577.353    -74827.73   -442.05287   -14.553215   -598.55845    76.907174    88.805446    81.142984    1398.4925 
   38000   -1795492.7    38141.205    38518.837   -74181.216   -485.95819    137.28966   -369.11325       76.894    88.790233    81.129084     1407.289 
   38100   -1795489.2    38634.734    38937.963   -73728.962     21.50565    102.65706   -181.23764    76.889342    88.784854    81.124169    1402.7013 
   38200   -1795514.1    38285.371    37919.538   -74220.809   -473.86737    378.97969    48.313215    76.899132    88.796159    81.134498    1398.8043 
   38300   -1795528.8    35748.094    35543.849    -76672.35   -32.959776    398.12749    -102.9155    76.913508    88.812759    81.149666    1399.3215 
   38400     -1795469    35845.819    36730.054   -76193.769   -15.340561   -232.13418    79.629064    76.916238    88.815912    81.152547    1394.2344 
   38500   -1795489.5     37278.19    37278.524   -75039.907    315.17808   -319.11561    373.90233    76.905332    88.803319     81.14104     1399.736 
   38600     -1795490    40040.011    39067.853   -73504.258   -112.01177   -429.88972    205.53556    76.891549    88.787403    81.126498    1402.1047 
   38700   -1795503.8    38917.374    39097.384   -73559.169     584.6528   -210.14077    468.18792    76.889497    88.785033    81.124332    1403.6051 
   38800   -1795516.1    37438.722    37481.357   -73980.794    312.35723   -521.94524    120.47354    76.900694    88.797963    81.136146    1396.7188 
   38900   -1795509.3    36306.127     35558.01   -75618.227   -208.38541    -396.6282    149.57963    76.914333    88.813712    81.150537    1390.9862 
   39000   -1795508.3    36015.424    34637.105   -76324.202   -235.19992    319.72307    227.42692    76.916831    88.816596    81.153172    1399.1997 
   39100   -1795447.6    37051.425    37919.048   -74453.635    437.26928    358.94217   -127.25094    76.904736    88.802631    81.140411    1398.2404 
   39200   -1795486.5    38843.946    39012.211   -74359.058    459.66655   -70.022176   -109.16955    76.891893      88.7878     81.12686    1403.2208 
   39300   -1795480.1    40190.246     39310.37    -73407.56   -228.45496   -53.313534   -68.013485    76.890258    88.785913    81.125136    1396.8653 
   39400   -1795548.6    36761.284    37490.122   -74784.806    -126.2593    345.35689   -181.60302    76.902944    88.800561     81.13852    1398.7991 
   39500   -1795535.6    34591.483    35652.462   -76746.323    33.287077   -34.986622     257.4759    76.915639     88.81522    81.151915    1391.8744 
   39600   -1795507.3     35829.56    35825.972   -76698.392    244.81151   -38.214791   -252.18906    76.913618    88.812887    81.149782    1393.3617 
   39700   -1795462.6    38259.447     38199.82   -73912.646    229.89901   -45.271434   -441.51944     76.89969    88.796804    81.135087    1398.8809 
   39800     -1795466    38147.481    39811.963   -73820.204    554.04392    125.58685   -3.8959568    76.891876     88.78778    81.126843    1402.7296 
   39900   -1795480.8    38653.334    38350.367   -73629.549   -66.727705   -179.30904    33.588889     76.89701    88.793709     81.13226    1400.4746 
   40000   -1795434.6    36265.824    36321.658   -75159.483    358.11829   -246.08478   -329.27041    76.909094    88.807662    81.145009    1385.3976 
   40100   -1795555.3    36328.775     35397.78   -76004.098    -318.7766   -337.65801   -335.86998    76.914632    88.814058    81.150853    1400.8173 
   40200   -1795464.3    36581.693     37229.79   -75323.996    331.09294   -240.87803   -213.51423    76.908286    88.806729    81.144156    1399.5291 
   40300   -1795461.3    39320.872    38262.254   -74378.622    148.08938    290.70357    70.217643    76.897175      88.7939    81.132434    1404.6349 
   40400   -1795466.4    38953.481    38459.733   -74149.013   -331.08204   -66.880368    236.93647    76.893793    88.789995    81.128866    1400.8076 
   40500   -1795516.1    38246.563    37925.828   -74653.948    141.71112    83.743357   -285.02188    76.901429    88.798811    81.136922    1399.8778 
   40600   -1795491.1     36651.62    35999.344   -76070.962   -608.71063    569.39118   -249.10914    76.913055    88.812236    81.149188    1392.2394 
   40700   -1795475.8    36540.244    35862.472   -75656.923   -34.251287   -4.9603912   -545.58748    76.916153    88.815814    81.152457    1395.9133 
   40800   -1795408.5     37476.11    37495.164   -75376.707     361.8936   -132.31266    339.61007    76.907837     88.80621    81.143682    1398.2772 
   40900   -1795481.7    38281.307    38330.319   -74574.998    166.88601    145.01368    441.12505    76.897233    88.793966    81.132495    1406.8381 
   41000   -1795523.8    38330.457    39124.815   -74774.482     205.3525    313.61999   -265.58605    76.893955    88.790182    81.129037    1405.6885 
   41100   -1795461.7    37382.615    37576.999    -74350.72   -79.691808   -131.42941   -10.214316    76.901585    88.798991    81.137086    1391.7115 
   41200   -1795491.1    36370.484    36154.486   -74699.566    199.99214   -73.364053    237.64708    76.912808     88.81195    81.148927    1396.2311 
   41300   -1795422.3    36694.527    36515.841   -75346.072   -207.63426   -363.90333   -482.00033    76.915009    88.814492    81.151249     1392.563 
   41400   -1795484.2    37189.708    36849.404   -75531.594   -608.51052    262.62008   -665.64782    76.907443    88.805756    81.143267    1413.6229 
   41500   -1795395.4    38469.533    38796.023    -73972.73    346.12394   -299.02272   -232.77151    76.898617    88.795564    81.133955    1407.9094 
   41600   -1795486.3    39086.705    38908.153   -74574.728     230.8955    328.95166    295.54944    76.898783    88.795756     81.13413    1413.8162 
   41700   -1795485.2    36164.279    37014.875   -75782.281   -191.99333    229.39777    202.19822    76.909076    88.807642     81.14499    1403.6341 
   41800   -1795518.3    35680.384    36237.599   -76336.453    319.99442    180.92998   -5.4128086    76.916216    88.815886    81.152523    1399.9682 
   41900   -1795508.5    36911.535    35664.474   -76347.586    101.74655   -60.047265    144.29576    76.912624    88.811739    81.148734    1397.0556 
   42000   -1795464.4     38490.78    38250.735   -74113.276    285.23982   -413.71418    -15.38256     76.89943    88.796504    81.134813    1396.7262 
   42100   -1795448.9    38642.921    39671.859   -73784.712    171.16072   -232.04883    320.40979    76.890504    88.786196    81.125395    1403.4733 
   42200   -1795514.2    39031.087    37820.183   -74642.495    642.44677   -424.49535   -281.82016    76.895715    88.792213    81.130893    1411.4674 
   42300     -1795498    36634.914    36565.024   -76082.784   -407.43009    -637.1007   -20.217405    76.909731    88.808398    81.145681    1394.9326 
   42400   -1795497.9    35710.548    35807.176   -77093.927   -327.17752    173.89263    4.2435862    76.917184    88.817004    81.153545    1393.0911 
   42500     -1795493    37234.782    36406.406   -75572.941   -516.23947   -685.06049   -10.514251    76.910195    88.808934    81.146171    1398.6651 
   42600   -1795457.4    38527.119    38793.619   -73464.162    626.02698   -246.44603    380.66962    76.896934    88.793621     81.13218    1401.3163 
   42700   -1795490.3    38757.877    39055.141   -73505.725   -364.15455   -124.30406    346.15159    76.892017    88.787944    81.126992    1406.0195 
   42800   -1795519.5    37157.601     37391.19   -74730.486   -280.63678    688.27302    244.18652    76.899714    88.796831    81.135112    1399.6424 
   42900   -1795555.4    37442.626    36183.972   -76510.102   -297.03411   -373.71828   -81.001228    76.909791    88.808468    81.145745    1398.1633 
   43000   -1795492.4    36255.078    36764.074   -76058.566   -135.61371    538.91992   -50.035476    76.912369    88.811444    81.148464    1393.8751 
   43100   -1795484.8    37673.308    37974.657    -75713.87    21.008525   -51.902689   -451.85592    76.905463    88.803469    81.141178    1399.3447 
   43200   -1795501.5    38722.745    38486.857    -74461.61   -532.58124     11.93219   -41.580704    76.895501    88.791966    81.130667    1404.9208 
   43300   -1795480.3    38892.878    38137.387   -74156.397    -156.9185   -231.49775   -55.464959     76.89389    88.790106    81.128968    1400.8661 
   43400   -1795559.7    37207.388     37959.13   -75470.084    337.77823    578.78828   -313.68396    76.902295    88.799811    81.137835    1398.7144 
   43500   -1795532.8    36850.495    36361.315   -76497.864   -184.54636    50.760459    285.46056     76.91079    88.809621    81.146799    1392.7432 
   43600   -1795492.6    36915.499    37476.278   -76646.893     193.7538    452.03716    150.14374    76.909786    88.808462    81.145739    1395.8949 
   43700   -1795483.5    38130.687    38579.696   -75271.105    227.69369    379.05921     530.5168    76.901127    88.798463    81.136603     1400.645 
   43800   -1795491.1    39101.188    38727.501   -74808.257    81.672223    613.52363     419.6592    76.894804    88.791162    81.129932    1402.5194 
   43900   -1795459.4    38886.035    38872.322   -74328.541    109.61559    795.68036    161.92593    76.897177    88.793901    81.132435    1395.5321 
   44000   -1795536.2    37061.049    37471.756   -75675.788     661.8004    526.72661    390.45771    76.905273    88.803251    81.140978    1395.9137 
   44100   -1795497.6    35437.519    36124.597   -76011.865    578.62456    469.26361    97.351176     76.90939    88.808005    81.145322    1386.2213 
   44200   -1795510.7    36741.088    38521.645   -74531.094   -25.207964    956.10191    652.90724    76.903417    88.801107    81.139019    1398.2939 
   44300     -1795476    38454.458    38990.542   -73742.225    681.00305    702.36395     -26.6489    76.896007    88.792551    81.131202    1399.0658 
   44400   -1795505.9    38396.781    38646.665    -74258.84    381.31257    425.62404    239.49876    76.896226    88.792804    81.131432    1402.5232 
   44500   -1795472.9    37729.209    37513.494    -74547.94   -7.4882005    325.86283    482.83196    76.904108    88.801905    81.139748    1395.7784 
   44600   -1795505.7    36262.499    36623.102   -76473.561    171.99015    23.385449   -465.05434    76.911412    88.810339    81.147454    1397.0662 
   44700   -1795505.1    36864.735    36805.092   -76479.129    165.03159    249.69586    142.15038    76.909589    88.808234    81.145531    1397.1005 
   44800   -1795481.9    37664.354    38607.555   -74552.183    494.96328    274.78758    321.44931    76.899445     88.79652    81.134828    1402.1137 
   44900   -1795468.2    39102.343    38975.356   -75008.165   -94.179691   -63.203273   -232.14984    76.893444    88.789591    81.128497    1406.2636 
   45000   -1795488.5    38664.028    38148.722   -74970.417     80.14459    291.85657    139.08282    76.899018    88.796028    81.134378    1403.9687 
   45100   -1795510.8    36769.306    37001.675   -76287.582    554.84064    552.21892    60.577909    76.910243    88.808989    81.146221    1395.4089 
   45200   -1795485.3    36225.683    36757.839   -76020.355    66.194193    184.73426     213.4221    76.913617    88.812886    81.149782    1392.9032 
   45300   -1795446.3    37417.538    37318.838   -75812.475    715.63604   -94.174492   -54.637705    76.906448    88.804607    81.142218    1393.2552 
   45400     -1795478    38825.468     38805.39   -74463.604    -184.2225    188.68221    180.81674    76.894953    88.791334    81.130089    1402.6839 
   45500   -1795435.3    39893.086      39221.4   -74889.456     122.7142    230.07697    111.28303    76.892111    88.788052     81.12709    1396.5549 
   45600   -1795583.7    37624.752    37472.248   -75865.038    530.66824   -242.64804    346.21505    76.900191    88.797383    81.135616    1402.9574 
   45700   -1795533.5    37042.065    36650.702   -76342.424   -104.24475   -140.68705   -329.22056    76.910327    88.809087     81.14631    1393.3543 
   45800   -1795480.9    35954.471    36962.119   -76217.724   -281.66695    97.664271    -125.9221    76.912191    88.811239    81.148277    1394.1933 
   45900   -1795440.1    37671.146    37250.102   -74500.069     60.26318   -243.75192   -135.27791    76.903397    88.801084    81.138998      1395.03 
   46000   -1795499.7    38783.336    38634.245   -73192.576   -553.08682    382.85274   -392.96246    76.895122    88.791528    81.130267    1403.7335 
   46100   -1795483.9    37428.397    37934.238   -73289.759    284.45864    20.587061   -68.237502    76.896099    88.792657    81.131299     1398.553 
   46200   -1795504.1    37939.482    36606.317   -74095.543    336.39598   -478.99471    162.77643    76.904338    88.802171    81.139991    1390.8244 
   46300     -1795558    36503.223    35871.996   -75305.339   -474.98769    192.82625   -321.09221    76.911492    88.810431    81.147539    1391.8648 
   46400   -1795524.4    36535.026     36334.48   -75732.753    457.16287    316.01317    84.871994    76.909806    88.808484     81.14576    1395.7739 
   46500   -1795544.7    38493.418    37705.973   -74324.843   -203.22457   -30.429507    36.879507    76.899542    88.796633    81.134931    1404.0782 
   46600   -1795452.7    39223.943    38802.084   -73772.726   -364.98582   -230.89704   -769.05238    76.892892    88.788954    81.127915    1396.1308 
   46700     -1795472    38565.736    38351.226   -74253.372    559.52411   -162.50244   -90.796887    76.897355    88.794107    81.132623    1401.2043 
   46800   -1795486.5    37078.326    37382.483   -75569.033   -229.21446    122.28484   -213.30647    76.909389    88.808003     81.14532    1401.1213 
   46900   -1795490.8     35191.65    36022.375   -76126.544   -173.77293    377.21933   -88.290409    76.918019    88.817969    81.154426    1393.2918 
   47000   -1795543.5    35409.387    35415.775   -75786.312    137.00031    428.19453   -430.70564    76.912911    88.812069    81.149036    1397.4478 
   47100   -1795474.9    37665.616    39174.025   -73604.089   -316.95535    697.74164   -182.25737    76.896402    88.793007    81.131618    1397.9429 
   47200   -1795472.4    39528.977    40137.267   -73144.711     -251.379    721.79684   -660.38835    76.885881    88.780858    81.120517    1403.5274 
   47300   -1795497.2     38621.15    38793.109   -73643.132    136.47125    497.04108     31.68874    76.894291     88.79057    81.129391    1403.6094 
   47400   -1795536.1    35346.117    35907.822   -76617.013     376.4116    169.60587    -42.19773    76.913919    88.813234      81.1501    1403.7245 
   47500   -1795554.3    34081.497    36233.514   -77518.329   -794.49401    748.07694   -503.42828     76.92426    88.825174     81.16101    1404.3226 
   47600   -1795471.5    36471.166    36924.491    -76510.01   -207.88698    776.13971     122.8124    76.914671    88.814102    81.150893    1404.8401 
   47700   -1795467.6    39163.878    39113.981   -73951.148     146.5722   -20.588147   -261.70634     76.89547     88.79193    81.130634    1410.6556 
   47800   -1795484.4    39699.515    39914.696   -73306.036    230.41581    268.65123   -167.18779    76.886726    88.781834    81.121409    1404.9417 
   47900   -1795517.9     37838.44    38927.285   -74509.095   -21.553823    187.05644   -92.672852    76.895647    88.792135    81.130822    1400.8541 
   48000   -1795500.7    36700.617     36878.71   -76638.593   -313.76974    285.70947   -197.65641    76.912078    88.811108    81.148157    1396.5161 
   48100     -1795464    35650.574    36110.975   -77093.472    404.01712     563.2127    53.697218    76.919489    88.819665    81.155976    1395.8534 
   48200   -1795419.1    37428.978    36685.533    -75674.29    -156.6877    22.122968   -85.283852    76.911282    88.810189    81.147317    1401.1009 
   48300   -1795464.5    38608.619    38709.301   -75034.543    396.62174    -225.4127    612.93707    76.898553    88.795491    81.133888     1409.103 
   48400   -1795484.9    38932.541     39211.47   -73323.822   -110.30476    533.32788    122.65925      76.8936    88.789771    81.128661    1406.5608 
   48500   -1795528.7    37040.775    37742.116   -75411.902     182.0984   -16.859326     265.2998     76.90043    88.797658    81.135867    1406.1708 
   48600   -1795499.6    37059.367    36265.788   -76468.339   -213.47621    303.32605   -453.44789    76.910934    88.809787     81.14695    1397.5014 
   48700   -1795489.6    36559.735    36977.183    -75957.39   -298.56268    496.71693   -591.73718    76.913723    88.813008    81.149893    1396.3597 
   48800   -1795485.4    37325.974     37113.56   -75365.292   -440.95497    338.04495    -354.9407    76.906877    88.805102     81.14267    1407.1127 
   48900   -1795491.8    38428.619    39038.749       -73454   -278.91268    824.37563   -124.39816    76.898493    88.795421    81.133824    1412.6201 
   49000   -1795465.7    38210.713    37918.571   -74151.172    320.69841    305.99481   -136.25958    76.898644    88.795596    81.133984    1402.9454 
   49100     -1795510    36401.243    37716.824   -75353.961      127.499    623.12711    131.94613    76.905688    88.803729    81.141415    1403.3249 
   49200   -1795485.8    36036.608    36754.869   -74916.575   -745.51145      604.943    137.68971    76.910965    88.809823    81.146983    1398.2462 
   49300   -1795473.3    36615.741    36248.391   -75038.945      190.241    270.77769   -139.05137    76.910485    88.809269    81.146477    1397.5486 
   49400   -1795420.3    37956.386    37634.901   -74693.979   -23.298841    182.14443    201.58859    76.902793    88.800386    81.138361    1395.0964 
   49500   -1795473.5    38356.714     38654.01   -74365.352   -422.32021    506.83629   -132.25113    76.896514    88.793136    81.131736    1411.6173 
   49600   -1795407.7    38594.506    38483.373   -74447.551    -224.4907      268.351     132.5884    76.899423    88.796495    81.134805     1400.327 
   49700   -1795447.4     37023.16    37489.317   -74745.981    452.50269    398.50273    309.65302    76.908491    88.806966    81.144372    1394.3133 
   49800   -1795506.2    36369.301    35948.938   -75258.056    -806.1818     776.2686   -369.42934    76.914318    88.813694     81.15052    1400.4048 
   49900   -1795450.4    36714.248    37180.609   -75124.757   -198.63209    476.68098   -205.15518    76.909889    88.808581    81.145848    1393.8687 
   50000   -1795464.9    38506.621    38120.703    -74251.62    589.36059    64.598051    481.38715    76.899646    88.796752     81.13504    1400.7637 
[...]
   87800   -1795524.3    38884.858    38166.131   -73912.785   -518.93126   -58.679935   -303.94204     76.89738    88.794136     81.13265    1402.6442 
   87900   -1795483.6     38700.65    37877.521   -74645.376   -516.05743   -301.97997   -516.32625     76.89738    88.794136     81.13265    1396.2418 
   88000   -1795491.6    38464.027    38294.747   -74016.697    -222.0078    237.55117    351.64763     76.89738    88.794136     81.13265    1403.0504 
   88100   -1795529.7     37447.76    38832.602   -74509.003    223.32465   -61.090703    90.986772     76.89738    88.794136     81.13265     1400.847 
   88200   -1795427.5    38724.539    37815.438   -74242.335   -763.44367    130.31872   -354.93584     76.89738    88.794136     81.13265    1402.1224 
   88300   -1795533.1    38187.292    38914.413   -74213.517    38.348278     361.5033   -42.887774     76.89738    88.794136     81.13265    1403.0747 
   88400     -1795539    37836.048    37662.705   -75077.499   -377.13879    137.06378    -568.5582     76.89738    88.794136     81.13265    1396.8509 
   88500     -1795494    37664.562    39016.562   -74104.518     -470.737    88.453061   -195.97809     76.89738    88.794136     81.13265    1396.8345 
   88600   -1795529.6    37011.892    38411.239   -74582.688    117.60023    487.40083   -114.08124     76.89738    88.794136     81.13265    1407.1234 
   88700   -1795504.2    38310.273    38139.065   -74655.984    -417.9446   -93.135975   -377.52271     76.89738    88.794136     81.13265    1397.8246 
   88800     -1795517    37759.184    38292.765   -74804.821   -132.47563    290.94211   -213.02582     76.89738    88.794136     81.13265    1404.4893 
   88900   -1795483.6    38462.485    37200.899   -74905.495    270.06306   -254.50704    248.77901     76.89738    88.794136     81.13265    1401.8903 
   89000   -1795480.9    39044.689    38926.299   -74566.824   -52.439904    66.532873     114.1031     76.89738    88.794136     81.13265    1395.0919 
   89100   -1795499.4     38927.74    38619.881   -73836.463    351.80684   -264.21878     165.0191     76.89738    88.794136     81.13265    1400.6222 
   89200     -1795512    37797.563    38125.473   -74521.612     57.11343    71.893748   -447.27053     76.89738    88.794136     81.13265    1392.8037 
   89300   -1795488.3    38592.908    38123.602   -74959.508   -31.603819   -294.08702   -71.642808     76.89738    88.794136     81.13265    1395.2763 
   89400   -1795434.8    39654.162    37725.015   -73357.703   -26.928493   -65.241556   -398.76666     76.89738    88.794136     81.13265    1396.8959 
   89500   -1795455.9    38571.265    38677.096   -73630.918   -293.01544   -231.09041    315.46575     76.89738    88.794136     81.13265    1401.6101 
   89600   -1795491.1    38275.611    37865.025   -73802.739   -52.826679    168.61285    71.731493     76.89738    88.794136     81.13265    1402.4872 
   89700   -1795474.3      37954.1    37772.624   -74404.696    -292.4911   -203.95084   -8.4790475     76.89738    88.794136     81.13265    1393.7374 
   89800   -1795507.5    37574.713    37523.271   -73637.243   -369.64022   -402.20231   -678.51405     76.89738    88.794136     81.13265    1403.7093 
   89900   -1795460.5    38687.166    37627.078   -73677.963     255.5953   -467.57217   -663.23356     76.89738    88.794136     81.13265    1404.7728 
   90000   -1795505.7     38831.81    37826.799   -74461.545   -9.1726759   -297.59608   -101.34776     76.89738    88.794136     81.13265    1397.7854 
   90100   -1795474.9     38781.32    38698.552   -74603.881    154.23665   -569.79592    102.75094     76.89738    88.794136     81.13265    1401.7121 
   90200   -1795479.8    37858.289    38101.609   -74596.357     117.0976   -8.1406275   -280.19997     76.89738    88.794136     81.13265    1394.9542 
   90300   -1795475.1     38668.31     38435.96   -74755.282    530.55625   -162.53786    204.58097     76.89738    88.794136     81.13265    1400.6892 
   90400   -1795535.4    38052.299    38068.919   -75130.524   -272.65912    -241.9778    364.71489     76.89738    88.794136     81.13265    1406.7599 
   90500   -1795513.4    38023.809    38020.924   -75714.306    260.54415   -416.24308   -381.52114     76.89738    88.794136     81.13265      1397.84 
   90600   -1795493.2    39370.901     38175.75   -75100.433   -45.354569   -438.87139    156.33835     76.89738    88.794136     81.13265    1399.9166 
   90700   -1795474.7    38659.785    38657.958   -74640.339   -374.82274    -243.2984   -176.23233     76.89738    88.794136     81.13265    1397.7599 
   90800   -1795446.5    38058.774    39442.915   -74771.729    139.64604    220.01244   -242.32041     76.89738    88.794136     81.13265    1402.9222 
   90900     -1795509    39534.391    38333.963   -75136.824    894.22236    123.55314    538.35776     76.89738    88.794136     81.13265    1402.8115 
   91000   -1795496.2    38447.372     38225.98     -74976.8    428.79614   -232.28885    481.32098     76.89738    88.794136     81.13265    1407.6214 
   91100   -1795537.6    37996.934    38860.374   -75219.752    405.06362    12.546955    644.93432     76.89738    88.794136     81.13265    1401.6035 
   91200   -1795503.5    37865.173    37168.858   -75302.116    843.00751   -12.351335    764.23661     76.89738    88.794136     81.13265    1391.7487 
   91300   -1795532.9    37727.915    37555.476   -75604.276     310.0221    172.64602    256.57397     76.89738    88.794136     81.13265    1391.8537 
   91400   -1795469.6    38517.051     38568.13   -73667.698    25.837961    55.027045     34.12689     76.89738    88.794136     81.13265    1396.0605 
   91500   -1795485.8    38381.891    37795.381   -74123.556   -160.60944    70.577751   -215.07185     76.89738    88.794136     81.13265    1396.9803 
   91600   -1795499.6      37977.6    38111.014   -75310.405    234.02218    -29.55321   -20.618325     76.89738    88.794136     81.13265    1395.5225 
   91700   -1795501.5    38011.203    38266.889   -74830.741   -918.13279    133.59407    -294.5196     76.89738    88.794136     81.13265    1402.1589 
   91800   -1795471.8     38477.61    38200.653   -75246.614    -210.2217   -350.58196   -47.105656     76.89738    88.794136     81.13265    1396.7796 
   91900   -1795474.7    39350.974    38726.202   -75523.048    189.94489   -432.75462    394.59807     76.89738    88.794136     81.13265    1401.4162 
   92000   -1795431.4    39479.922    38975.225   -74881.144    377.82318   -479.48827   -292.22965     76.89738    88.794136     81.13265    1408.2792 
   92100   -1795468.4    38250.854    38854.924   -75217.638   -304.69407   -246.33857   -5.1423422     76.89738    88.794136     81.13265    1401.7317 
   92200     -1795530    38559.843     37469.08   -75375.797    529.52752   -327.26778    40.649021     76.89738    88.794136     81.13265    1401.9279 
   92300   -1795491.7    38181.243    38233.325   -74761.675    -121.9444   -95.106768   -346.35047     76.89738    88.794136     81.13265     1399.396 
   92400   -1795531.7    38167.369    37799.997     -75802.7   -407.76924   -105.66013   -210.59188     76.89738    88.794136     81.13265      1398.13 
   92500   -1795493.5    38097.876    38689.036   -75250.304     459.8096   -263.19019    92.155106     76.89738    88.794136     81.13265    1389.7908 
   92600     -1795510    38820.533    37776.458   -74729.884    595.71699   -910.79737   -508.99122     76.89738    88.794136     81.13265    1410.7778 
   92700   -1795487.1    38517.351     38285.39   -74709.899    44.367063   -584.04203   -182.41024     76.89738    88.794136     81.13265    1404.5035 
   92800   -1795535.8     38359.66    38134.827    -74835.79    -25.80858   -1328.8398    621.21695     76.89738    88.794136     81.13265    1408.0232 
   92900   -1795528.4    38447.478     38198.19   -74302.313    684.71774   -936.73024   -31.588794     76.89738    88.794136     81.13265    1397.5755 
   93000   -1795429.6    39750.562    38101.064   -73902.284     83.10304   -1028.5825   -12.662315     76.89738    88.794136     81.13265    1401.4242 
   93100   -1795469.4    39005.737    39312.788   -74830.416   -279.86323   -702.15836   -562.78683     76.89738    88.794136     81.13265    1408.4222 
   93200   -1795500.6    38081.151    37295.046   -74545.174     433.5552   -1302.6293    -362.8038     76.89738    88.794136     81.13265    1389.3303 
   93300   -1795508.7    38902.379    37777.769   -73823.729    500.57208   -877.41435     36.71918     76.89738    88.794136     81.13265    1406.2025 
   93400   -1795480.9    38718.985    37840.557   -73828.201    -398.0857   -609.66434   -377.49054     76.89738    88.794136     81.13265    1401.2584 
   93500   -1795509.3      37975.9    37609.794   -73585.191    943.87634   -425.57555    602.43699     76.89738    88.794136     81.13265    1402.1472 
   93600   -1795530.6    38266.835     37639.52   -73894.092    338.58815    -298.9963   -279.77792     76.89738    88.794136     81.13265     1396.213 
   93700   -1795435.2    38295.689    38541.838   -73934.896   -454.47832   -424.35173   -373.91655     76.89738    88.794136     81.13265    1397.9509 
   93800   -1795496.4    38479.203     37701.78   -74384.264    74.590367   -808.47126   -188.33911     76.89738    88.794136     81.13265    1400.9079 
   93900   -1795482.6     38001.43    38125.973   -74450.715     195.3602   -440.11404   -125.62724     76.89738    88.794136     81.13265    1396.9448 
   94000   -1795506.8    37646.833    38838.122   -74172.124    27.169055    62.176719    437.81077     76.89738    88.794136     81.13265    1403.5357 
   94100   -1795592.1     38142.58    36857.335   -74661.612   -339.98113    -468.6608    384.41649     76.89738    88.794136     81.13265    1395.5655 
   94200   -1795521.5    38163.307    38176.515   -74419.227    339.36935   -212.55124    294.06471     76.89738    88.794136     81.13265    1402.9537 
   94300   -1795511.2    37491.115    38821.814   -73727.004    290.14247    119.84388   -518.88231     76.89738    88.794136     81.13265    1396.9532 
   94400     -1795491    37905.093     37224.61   -74383.259    233.58264   -55.360101   -395.45851     76.89738    88.794136     81.13265    1402.4782 
   94500   -1795497.4    38617.943    37787.106   -74454.572    345.04847   -323.65139    314.39727     76.89738    88.794136     81.13265    1401.1351 
   94600   -1795538.1    37196.145    38439.793   -75353.238   -227.45638    231.77652    320.20486     76.89738    88.794136     81.13265    1407.6696 
   94700   -1795546.4    37334.979    37727.311   -74754.209    76.307674    233.63837   -1.8153169     76.89738    88.794136     81.13265    1395.5632 
   94800   -1795496.3    38229.769    38173.484   -74896.658    179.26486    -311.3209   -321.90149     76.89738    88.794136     81.13265    1398.1386 
   94900   -1795488.5    37893.085    38962.571    -73964.27    330.78826    51.995862   -266.21791     76.89738    88.794136     81.13265    1396.0217 
   95000   -1795496.8     37767.35    39167.245   -74661.853   -44.424151   -166.93548    824.19026     76.89738    88.794136     81.13265    1399.9713 
   95100   -1795474.4    38247.492    38910.312   -74628.639   -544.06763     177.6809   -230.71189     76.89738    88.794136     81.13265    1397.1079 
   95200   -1795535.1    37898.518    38248.104   -74853.309    904.45571   -221.35315    479.37775     76.89738    88.794136     81.13265     1393.822 
   95300   -1795487.1     38247.07    38118.811   -74890.968    307.65418    105.01952    147.74008     76.89738    88.794136     81.13265    1400.2206 
   95400   -1795482.1    38701.907     37418.47   -75004.763   -271.69179   -526.74741   -199.81105     76.89738    88.794136     81.13265    1394.5352 
   95500   -1795493.4    39338.397    37994.605   -74833.495    -373.4856   -1187.6576   -115.53446     76.89738    88.794136     81.13265    1401.1257 
   95600   -1795440.1    39461.882    38982.265   -74011.974    83.689352     19.67421    24.951657     76.89738    88.794136     81.13265    1396.5481 
   95700   -1795487.7    38785.816    38244.092   -74797.934    4.6260488   -583.83383   -44.066189     76.89738    88.794136     81.13265    1399.8444 
   95800   -1795443.6    39067.903    38272.944   -74056.257   -200.60208   -404.43492   -815.55005     76.89738    88.794136     81.13265    1402.9372 
   95900   -1795440.5    38630.722    38227.156   -74776.022    277.90347    334.16198    42.576311     76.89738    88.794136     81.13265    1404.9774 
   96000   -1795453.7    37832.185    39257.293    -74450.54    238.25411    3.5885125     693.4688     76.89738    88.794136     81.13265    1396.9001 
   96100   -1795448.1    38565.137    38423.404   -73618.707    253.33542    233.28301    66.383941     76.89738    88.794136     81.13265    1399.4936 
   96200   -1795496.7    38530.143    37821.795   -74054.077    23.126028    26.690936   -174.64033     76.89738    88.794136     81.13265    1397.1368 
   96300   -1795491.3    38130.103    39122.053   -73899.814   -193.13295    58.518923   -14.095334     76.89738    88.794136     81.13265    1400.7592 
   96400   -1795483.2    37572.263    37891.155   -74107.515    91.344969   -233.30575    -555.9031     76.89738    88.794136     81.13265    1391.5715 
   96500   -1795526.9    38490.397    38069.754    -74118.27    214.13139    167.79358   -149.48813     76.89738    88.794136     81.13265    1396.6803 
   96600   -1795533.5    37883.768    37927.701   -75240.348    390.99411    291.80138    115.55313     76.89738    88.794136     81.13265    1396.7537 
   96700   -1795532.5    38422.138    38342.931   -74928.217   -271.94951   -78.836851    121.65239     76.89738    88.794136     81.13265    1405.2327 
   96800   -1795532.6    38614.599     38782.38   -75291.892    94.676349   -42.654908     98.31974     76.89738    88.794136     81.13265    1400.5877 
   96900     -1795454    38657.417    38959.568   -74840.318    248.96851    -88.37921    199.36389     76.89738    88.794136     81.13265    1407.2809 
   97000   -1795450.9    39382.285    39057.661   -74134.006   -95.917116   -425.86509     -431.337     76.89738    88.794136     81.13265     1402.931 
   97100   -1795476.5    39586.038    38555.568   -74529.681    -315.2913   -347.41267    -796.8961     76.89738    88.794136     81.13265    1398.9831 
   97200   -1795505.7    38600.384    38219.449   -75079.785    249.64125    567.21834   -129.80874     76.89738    88.794136     81.13265    1384.9102 
   97300   -1795445.5    38429.791    38888.735   -74073.522    11.568164   -381.88718    197.76095     76.89738    88.794136     81.13265    1408.2393 
   97400   -1795548.8     38376.03    37396.242   -75439.529   -142.97915    127.91737    386.13584     76.89738    88.794136     81.13265    1409.9251 
   97500   -1795493.6    38368.625    37733.602   -74894.492   -107.98166   -301.99529    132.51717     76.89738    88.794136     81.13265     1398.016 
   97600   -1795438.5    38748.655     38843.34   -74751.165     23.16965   -431.75778    289.72089     76.89738    88.794136     81.13265    1400.8488 
   97700   -1795478.6    37900.274    37898.429   -75280.702   -314.28854     302.2078    316.16826     76.89738    88.794136     81.13265    1388.6526 
   97800   -1795512.8    37969.455    38331.248   -75008.445    255.30464   -417.18935   -55.841147     76.89738    88.794136     81.13265    1397.5438 
   97900   -1795521.7    38580.659    38442.227   -75181.367     31.95737   -360.79565     4.615147     76.89738    88.794136     81.13265     1401.909 
   98000   -1795467.6    39413.275    38481.795   -74628.215   -142.06836    337.83873    -117.6044     76.89738    88.794136     81.13265    1399.2719 
   98100   -1795477.6     39789.27    38299.231   -75653.333    -12.92255    -338.3959    237.30379     76.89738    88.794136     81.13265    1404.4266 
   98200   -1795503.8    37891.682    38740.991    -75642.18   -305.81978   -29.033828   -53.789906     76.89738    88.794136     81.13265    1403.4047 
   98300   -1795509.3    39182.557    39202.627   -75021.503   -70.746404    195.71906   -40.885124     76.89738    88.794136     81.13265    1407.5995 
   98400     -1795474     38893.99    39348.987   -74670.714   -201.53515   -265.27232   -111.28507     76.89738    88.794136     81.13265    1410.3393 
   98500   -1795469.9    37681.432    38475.684   -74514.576     88.62207    -386.1774   -200.73676     76.89738    88.794136     81.13265    1393.7735 
   98600   -1795457.3    38422.586    38688.486   -74977.555    510.05062   -198.12141    294.57879     76.89738    88.794136     81.13265    1399.6155 
   98700   -1795532.7    38082.792    38722.737    -75094.33   -349.81975    139.48744    44.691051     76.89738    88.794136     81.13265    1403.3067 
   98800   -1795462.2    37576.164    39128.688   -74431.498    242.85235    199.93333    161.02001     76.89738    88.794136     81.13265    1400.8948 
   98900   -1795523.5    37981.181    38738.152   -74207.004    3.7474802   -7.9855856    388.33474     76.89738    88.794136     81.13265     1413.097 
   99000     -1795472    38494.095    38993.491    -74585.78    481.63461   -279.79317    -142.1264     76.89738    88.794136     81.13265    1398.1535 
   99100   -1795469.6    38314.919    38948.164   -73939.772    387.70343   -388.26994    352.16115     76.89738    88.794136     81.13265    1405.8731 
   99200   -1795570.5    38275.106    37312.444   -74718.074   -81.265475   -527.33483    151.86934     76.89738    88.794136     81.13265    1401.8446 
   99300   -1795551.6    38063.315    37883.185    -75111.11    6.7325881   -148.11443    17.263539     76.89738    88.794136     81.13265    1404.0961 
   99400   -1795473.1    38733.241     38354.82   -73905.581    485.78925    -610.0195    -91.24933     76.89738    88.794136     81.13265    1403.1499 
   99500   -1795532.4    38087.418    37387.782   -74873.979    -345.6251    229.19904     273.8605     76.89738    88.794136     81.13265    1400.5906 
   99600   -1795454.5    39279.592    37463.128   -74245.215    330.33805    -159.2092    14.515222     76.89738    88.794136     81.13265    1406.2477 
   99700   -1795489.3    37459.703    38254.023   -74965.082    481.65659    252.33214   -54.953676     76.89738    88.794136     81.13265    1396.9081 
   99800   -1795480.7    38266.156    38468.903   -74327.945   -65.861498    1.0814894   -290.79768     76.89738    88.794136     81.13265    1396.9199 
   99900   -1795459.4    38331.341    38968.665   -74612.354   -6.5424683    462.21463    177.93885     76.89738    88.794136     81.13265    1398.7498 
  100000   -1795548.7     38008.44    37525.766   -75134.455   -197.35823    53.335134    290.91515     76.89738    88.794136     81.13265    1388.1086 
  100028   -1795543.2    38159.599    38123.001   -74122.416    203.54997   -52.294624    31.765616     76.89738    88.794136     81.13265    1408.0863 
Loop time of 5914.93 on 15 procs for 50000 steps with 58275 atoms

Pair  time (%) = 4322.48 (73.0774)
Kspce time (%) = 1415.55 (23.9318)
Neigh time (%) = 52.1517 (0.881697)
Comm  time (%) = 88.2049 (1.49123)
Outpt time (%) = 0.663027 (0.0112094)
Other time (%) = 35.8837 (0.606664)

Nlocal:    3885 ave 3917 max 3827 min
Histogram: 3 0 0 0 1 2 0 2 3 4
Nghost:    18550.9 ave 18676 max 18433 min
Histogram: 6 0 0 0 0 1 2 3 0 3
Neighs:    1.50047e+06 ave 1.5443e+06 max 1.45244e+06 min
Histogram: 2 0 2 1 2 2 2 1 1 2

Total # of neighbors = 22507119
Ave neighs/atom = 386.223
Neighbor list builds = 853
Dangerous builds = 0
unfix   2


write_data NPT_relaxed_1400.data
PPPM initialization ...
  G vector (1/distance) = 0.309164
  grid = 72 80 75
  stencil order = 5
  estimated absolute RMS force accuracy = 0.00176997
  estimated relative force accuracy = 0.000122918
  using double precision FFTs
  3d grid and FFT values/proc = 58144 28800

