LAMMPS (28 Jun 2014)
Running on 20 partitions of processors
Step MaxReplicaForce MaxAtomForce GradV0 GradV1 GradVc EBF EBR RDT RD1 PE1 RD2 PE2 ... RDN PEN
0    92.720119    15.113893    92.720119    92.705687    92.720119            0 0.0064636845        2.651            0   -14735.505  0.052631579    -14737.23   0.10526316   -14738.577   0.15789474   -14739.526   0.21052632   -14740.082   0.26315789    -14740.28   0.31578947     -14740.2   0.36842105    -14739.96   0.42105263   -14739.694   0.47368421   -14739.525   0.52631579   -14739.527   0.57894737   -14739.698   0.63157895   -14739.965   0.68421053   -14740.206   0.73684211   -14740.286   0.78947368   -14740.088   0.84210526   -14739.532   0.89473684   -14738.582   0.94736842   -14737.236            1   -14735.512 
100   0.37388986    0.1634225   0.34690368   0.34683341   0.47837875    2.6278972    2.6279966    3.5608899            0   -14820.969  0.064364409   -14820.871   0.12070367   -14820.666   0.17361025   -14820.356    0.2262913   -14819.953   0.27768333   -14819.519   0.32787939   -14819.101    0.3776951    -14818.74   0.42707273   -14818.477   0.47583436   -14818.341   0.52431182   -14818.341   0.57307228   -14818.478   0.62244638   -14818.741   0.67225581   -14819.102   0.72244267   -14819.521   0.77381888   -14819.955   0.82647615   -14820.357   0.87935997   -14820.666   0.93567523   -14820.871            1   -14820.969 
200  0.088838148  0.056710171  0.059825083  0.059848969   0.43257735    2.6474806    2.6476354    3.8643575            0   -14820.992  0.058544142   -14820.954   0.11603169   -14820.817   0.17208573   -14820.542   0.22646441   -14820.138   0.27912846   -14819.667   0.33017295   -14819.199   0.37980652   -14818.794   0.42836079   -14818.499   0.47624224   -14818.345   0.52389186   -14818.345   0.57176988     -14818.5   0.62031736   -14818.795   0.66994075   -14819.201   0.72097184   -14819.669   0.77361954   -14820.139   0.82797952   -14820.542   0.88401265   -14820.818   0.94147817   -14820.955            1   -14820.993 
300  0.085726661  0.030367604  0.019659977  0.019658131   0.45430557    2.6459073    2.6461352    3.9028453            0   -14820.993  0.055638857   -14820.964   0.11074039   -14820.848   0.16514061   -14820.604   0.21872224   -14820.225   0.27140878    -14819.76    0.3232954   -14819.277   0.37440728   -14818.844   0.42492388    -14818.52   0.47505537   -14818.348   0.52505416   -14818.348    0.5751827    -14818.52    0.6256934   -14818.845   0.67679677   -14819.278   0.72867254   -14819.761   0.78134519   -14820.226    0.8349119   -14820.605    0.8892952   -14820.849   0.94437916   -14820.964            1   -14820.994 
400   0.02176637  0.010554581 0.0082817593 0.0082827111   0.47355475    2.6442954    2.6444063    3.9334216            0   -14820.994  0.053716471    -14820.97   0.10723102   -14820.868   0.16050284   -14820.645    0.2134595   -14820.286    0.2661183   -14819.826   0.31847826   -14819.335   0.37056894   -14818.881   0.42244837   -14818.536   0.47419195    -14818.35   0.52588807    -14818.35   0.57762948   -14818.536   0.62950453   -14818.882   0.68158883   -14819.335   0.73394067   -14819.827   0.78658967   -14820.286    0.8395352   -14820.646   0.89279473   -14820.869   0.94629656    -14820.97            1   -14820.994 
500 0.0089864187 0.0048139705  0.004607334 0.0046080252   0.47965555    2.6434273    2.6435666    3.9441583            0   -14820.994  0.053140053   -14820.972    0.1061813   -14820.875   0.15910007   -14820.658   0.21188269   -14820.305   0.26452356   -14819.847   0.31702751   -14819.353   0.36941152   -14818.893   0.42170042   -14818.541    0.4739282    -14818.35   0.52613442    -14818.35   0.57836048   -14818.541   0.63064596   -14818.894     0.683025   -14819.353    0.7355225   -14819.848   0.78815569   -14820.305   0.84092963   -14820.658   0.89383898   -14820.875   0.94687017   -14820.972            1   -14820.994 
600  0.014102808 0.0024664238 0.0027122406 0.0027152672   0.48235219    2.6431964    2.6433063    3.9496019            0   -14820.994  0.052896559   -14820.973   0.10573981   -14820.877   0.15851708   -14820.664   0.21122694   -14820.313   0.26386014   -14819.856   0.31642656   -14819.361   0.36893173   -14818.898   0.42138935   -14818.543   0.47381631   -14818.351    0.5262323   -14818.351   0.57865789   -14818.543   0.63111284   -14818.899   0.68361408   -14819.361   0.73617553   -14819.857   0.78880258   -14820.313   0.84150583   -14820.664    0.8942756   -14820.878   0.94711125   -14820.973            1   -14820.994 
700 0.0017199728 0.0013311603 0.0016063276 0.0016048589   0.48379654    2.6429365     2.643036    3.9528273            0   -14820.994  0.052772584   -14820.973   0.10551565   -14820.879   0.15822367   -14820.667   0.21089485   -14820.317   0.26352763   -14819.861    0.3161249   -14819.365   0.36869091   -14818.901   0.42123257   -14818.544   0.47375853   -14818.351   0.52627874   -14818.351   0.57880364   -14818.544   0.63134324   -14818.902   0.68390625   -14819.366    0.7364997   -14819.862    0.7891279   -14820.318   0.84179397   -14820.667    0.8944963   -14820.879   0.94723344   -14820.973            1   -14820.994 
773 0.00089054234 0.00069110769 0.00089054234 0.00089017279   0.48461049    2.6428664    2.6429794     3.954767            0   -14820.994  0.052705561   -14820.973   0.10539527    -14820.88   0.15806671   -14820.669     0.210719    -14820.32   0.26335141   -14819.864   0.31596558   -14819.367    0.3685637   -14818.903   0.42114938   -14818.545   0.47372698   -14818.351   0.52630155   -14818.351   0.57887838   -14818.545   0.63146253   -14818.903   0.68405845   -14819.368   0.73666979   -14819.864   0.78929882    -14820.32   0.84194714   -14820.669   0.89461421    -14820.88   0.94729932   -14820.973            1   -14820.994 
Climbing replica = 10
Step MaxReplicaForce MaxAtomForce GradV0 GradV1 GradVc EBF EBR RDT RD1 PE1 RD2 PE2 ... RDN PEN
773   0.48461049   0.42859876 0.00089054234 0.00089017279   0.48461049    2.6428664    2.6429794     3.954767            0   -14820.994  0.052705561   -14820.973   0.10539527    -14820.88   0.15806671   -14820.669     0.210719    -14820.32   0.26335141   -14819.864   0.31596558   -14819.367    0.3685637   -14818.903   0.42114938   -14818.545   0.47372698   -14818.351   0.52630155   -14818.351   0.57887838   -14818.545   0.63146253   -14818.903   0.68405845   -14819.368   0.73666979   -14819.864   0.78929882    -14820.32   0.84194714   -14820.669   0.89461421    -14820.88   0.94729932   -14820.973            1   -14820.994 
873  0.099171188  0.030731933 0.00049776482 0.00047384667 0.0060906746    2.6677625    2.6680293    3.9555464            0   -14820.994  0.053242371   -14820.973   0.10685117   -14820.875   0.16100513   -14820.649   0.21579631   -14820.274   0.27125753   -14819.784   0.32737587   -14819.254   0.38429605   -14818.776     0.441622   -14818.444   0.49921452   -14818.326   0.54687007   -14818.408   0.59477204   -14818.643   0.64311222   -14819.005   0.69220556   -14819.451   0.74199873    -14819.92   0.79247716    -14820.35   0.84360729   -14820.681   0.89532806   -14820.883   0.94753753   -14820.974            1   -14820.994 
973  0.020421689  0.012807029 0.00033064154 0.00031912527 0.00062802155     2.667844    2.6681158    3.9563421            0   -14820.994  0.054633959   -14820.971   0.10935794   -14820.866   0.16425109    -14820.63   0.21937137   -14820.243   0.27479496   -14819.747   0.33049751   -14819.223   0.38645861   -14818.758   0.44261772   -14818.439   0.49889004   -14818.326   0.54785222   -14818.413   0.59693839   -14818.659   0.64624569   -14819.035   0.69584923   -14819.489   0.74578428   -14819.958   0.79609626   -14820.381   0.84673046   -14820.699   0.89764198   -14820.891   0.94876462   -14820.975            1   -14820.994 
1073 0.0051552896 0.0038812212 0.00019551868 0.00016948639 0.0002374889    2.6678712    2.6680703    3.9571181            0   -14820.994  0.055275377   -14820.971   0.11056646   -14820.863   0.16589008   -14820.621   0.22125964   -14820.227   0.27668298    -14819.73   0.33216542   -14819.208    0.3877014   -14818.749   0.44327804   -14818.437    0.4988766   -14818.326   0.54864026   -14818.415   0.59844001   -14818.669   0.64830746   -14819.053   0.69826668   -14819.513   0.74833267   -14819.982    0.7985051   -14820.399      0.84878    -14820.71   0.89913479   -14820.895   0.94955157   -14820.976            1   -14820.994 
1173 0.0037651759 0.0012628512 0.00012209237 0.00010063751 0.00012562127    2.6678693    2.6680676    3.9574017            0   -14820.994   0.05540401   -14820.971   0.11080972   -14820.862   0.16622083   -14820.619   0.22164061   -14820.224   0.27707152   -14819.726    0.3325145   -14819.205   0.38796878   -14818.747   0.44343174   -14818.436   0.49889947   -14818.326   0.54889601   -14818.416   0.59890443   -14818.672   0.64893509   -14819.058   0.69899574    -14819.52   0.74909068   -14819.989   0.79922064   -14820.405    0.8493839   -14820.713   0.89957301   -14820.896   0.94978137   -14820.976            1   -14820.994 
1222 0.00096571189 0.00083423718 8.2688743e-05 7.9307321e-05 9.7128528e-05    2.6679363    2.6681123    3.9574668            0   -14820.994  0.055420155   -14820.971   0.11084055   -14820.862   0.16626321   -14820.619   0.22169011   -14820.224   0.27712259   -14819.726   0.33256126   -14819.204   0.38800577   -14818.747   0.44345484   -14818.436   0.49890645   -14818.326   0.54894233   -14818.416   0.59898593   -14818.672   0.64904394   -14819.059   0.69912124   -14819.521   0.74922079    -14819.99   0.79934302   -14820.406   0.84948651   -14820.713   0.89964728   -14820.896   0.94982044   -14820.976            1   -14820.994 
