479
Atoms. Timestep: 0
1 1.314 19.0766 3.398
1 5.609 16.5976 3.398
1 9.903 14.1176 3.398
1 14.198 11.6386 3.398
1 1.314 4.2 3.398
1 5.609 1.721 3.398
1 9.903 19.0766 3.398
1 14.198 16.5976 3.398
1 1.314 9.159 3.398
1 5.609 6.68 3.398
1 9.903 4.2 3.398
1 14.198 1.721 3.398
1 1.314 14.118 3.398
1 5.609 11.639 3.398
1 9.903 9.159 3.398
1 14.198 6.68 3.398
1 0 1.517 3.398
1 4.295 18.8736 3.398
1 8.589 16.3946 3.398
1 12.884 13.9146 3.398
1 0 6.476 3.398
1 4.295 3.997 3.398
1 8.589 1.517 3.398
1 12.884 18.8736 3.398
1 0 11.435 3.398
1 4.295 8.956 3.398
1 8.589 6.476 3.398
1 12.884 3.997 3.398
1 0 16.394 3.398
1 4.295 13.915 3.398
1 8.589 11.435 3.398
1 12.884 8.956 3.398
1 2.98 1.721 3.398
1 7.275 19.0766 3.398
1 11.569 16.5976 3.398
1 15.864 14.1176 3.398
1 2.98 6.68 3.398
1 7.275 4.2 3.398
1 11.569 1.721 3.398
1 15.864 19.0766 3.398
1 2.98 11.639 3.398
1 7.275 9.159 3.398
1 11.569 6.68 3.398
1 15.864 4.2 3.398
1 2.98 16.597 3.398
1 7.275 14.118 3.398
1 11.569 11.639 3.398
1 15.864 9.159 3.398
1 2.98 18.1146 10.195
1 7.275 15.6356 10.195
1 11.569 13.1556 10.195
1 15.864 10.6766 10.195
1 2.98 3.238 10.195
1 7.275 0.759 10.195
1 11.569 18.1146 10.195
1 15.864 15.6356 10.195
1 2.98 8.197 10.195
1 7.275 5.718 10.195
1 11.569 3.238 10.195
1 15.864 0.759 10.195
1 2.98 13.156 10.195
1 7.275 10.677 10.195
1 11.569 8.197 10.195
1 15.864 5.718 10.195
1 0 3.441 10.195
1 4.295 0.962 10.195
1 8.589 18.3186 10.195
1 12.884 15.8386 10.195
1 0 8.4 10.195
1 4.295 5.921 10.195
1 8.589 3.441 10.195
1 12.884 0.962 10.195
1 0 13.359 10.195
1 4.295 10.88 10.195
1 8.589 8.4 10.195
1 12.884 5.921 10.195
1 0 18.318 10.195
1 4.295 15.839 10.195
1 8.589 13.359 10.195
1 12.884 10.88 10.195
1 1.314 0.759 10.195
1 5.609 18.1146 10.195
1 9.903 15.6356 10.195
1 14.198 13.1556 10.195
1 1.314 5.718 10.195
1 5.609 3.238 10.195
1 9.903 0.759 10.195
1 14.198 18.1146 10.195
1 1.314 10.677 10.195
1 5.609 8.197 10.195
1 9.903 5.718 10.195
1 14.198 3.238 10.195
1 1.314 15.635 10.195
1 5.609 13.156 10.195
1 9.903 10.677 10.195
1 14.198 8.197 10.195
1 4.177 19.0766 7.929
1 8.472 16.5976 7.929
1 12.766 14.1176 7.929
1 17.061 11.6386 7.929
1 4.177 4.2 7.929
1 8.472 1.721 7.929
1 12.766 19.0766 7.929
1 17.061 16.5976 7.929
1 4.177 9.159 7.929
1 8.472 6.68 7.929
1 12.766 4.2 7.929
1 17.061 1.721 7.929
1 4.177 14.118 7.929
1 8.472 11.639 7.929
1 12.766 9.159 7.929
1 17.061 6.68 7.929
1 2.863 1.517 7.929
1 7.158 18.8736 7.929
1 11.452 16.3946 7.929
1 15.747 13.9146 7.929
1 2.863 6.476 7.929
1 7.158 3.997 7.929
1 11.452 1.517 7.929
1 15.747 18.8736 7.929
1 2.863 11.435 7.929
1 7.158 8.956 7.929
1 11.452 6.476 7.929
1 15.747 3.997 7.929
1 2.863 16.394 7.929
1 7.158 13.915 7.929
1 11.452 11.435 7.929
1 15.747 8.956 7.929
1 1.549 19.0766 7.929
1 5.843 16.5976 7.929
1 10.138 14.1176 7.929
1 14.432 11.6386 7.929
1 1.549 4.2 7.929
1 5.843 1.721 7.929
1 10.138 19.0766 7.929
1 14.432 16.5976 7.929
1 1.549 9.159 7.929
1 5.843 6.68 7.929
1 10.138 4.2 7.929
1 14.432 1.721 7.929
1 1.549 14.118 7.929
1 5.843 11.639 7.929
1 10.138 9.159 7.929
1 14.432 6.68 7.929
1 1.549 0.759 1.133
1 5.843 18.1146 1.133
1 10.138 15.6356 1.133
1 14.432 13.1556 1.133
1 1.549 5.718 1.133
1 5.843 3.238 1.133
1 10.138 0.759 1.133
1 14.432 18.1146 1.133
1 1.549 10.677 1.133
1 5.843 8.197 1.133
1 10.138 5.718 1.133
1 14.432 3.238 1.133
1 1.549 15.635 1.133
1 5.843 13.156 1.133
1 10.138 10.677 1.133
1 14.432 8.197 1.133
1 2.863 18.3186 1.133
1 7.158 15.8386 1.133
1 11.452 13.3596 1.133
1 15.747 10.8796 1.133
1 2.863 3.441 1.133
1 7.158 0.962 1.133
1 11.452 18.3186 1.133
1 15.747 15.8386 1.133
1 2.863 8.4 1.133
1 7.158 5.921 1.133
1 11.452 3.441 1.133
1 15.747 0.962 1.133
1 2.863 13.359 1.133
1 7.158 10.88 1.133
1 11.452 8.4 1.133
1 15.747 5.921 1.133
1 4.177 0.759 1.133
1 8.472 18.1146 1.133
1 12.766 15.6356 1.133
1 17.061 13.1556 1.133
1 4.177 5.718 1.133
1 8.472 3.238 1.133
1 12.766 0.759 1.133
1 17.061 18.1146 1.133
1 4.177 10.677 1.133
1 8.472 8.197 1.133
1 12.766 5.718 1.133
1 17.061 3.238 1.133
1 4.177 15.635 1.133
1 8.472 13.156 1.133
1 12.766 10.677 1.133
1 17.061 8.197 1.133
1 2.746 1.721 12.46
1 7.04 19.0766 12.46
1 11.335 16.5976 12.46
1 15.629 14.1176 12.46
1 2.746 6.68 12.46
1 7.04 4.2 12.46
1 11.335 1.721 12.46
1 15.629 19.0766 12.46
1 2.746 11.639 12.46
1 7.04 9.159 12.46
1 11.335 6.68 12.46
1 15.629 4.2 12.46
1 2.746 16.597 12.46
1 7.04 14.118 12.46
1 11.335 11.639 12.46
1 15.629 9.159 12.46
1 1.432 3.997 12.46
1 5.726 1.517 12.46
1 10.021 18.8736 12.46
1 14.315 16.3946 12.46
1 1.432 8.956 12.46
1 5.726 6.476 12.46
1 10.021 3.997 12.46
1 14.315 1.517 12.46
1 1.432 13.915 12.46
1 5.726 11.435 12.46
1 10.021 8.956 12.46
1 14.315 6.476 12.46
1 1.432 18.874 12.46
1 5.726 16.394 12.46
1 10.021 13.915 12.46
1 14.315 11.435 12.46
1 0.117 1.721 12.46
1 4.412 19.0766 12.46
1 8.706 16.5976 12.46
1 13.001 14.1176 12.46
1 0.117 6.68 12.46
1 4.412 4.2 12.46
1 8.706 1.721 12.46
1 13.001 19.0766 12.46
1 0.117 11.639 12.46
1 4.412 9.159 12.46
1 8.706 6.68 12.46
1 13.001 4.2 12.46
1 0.117 16.597 12.46
1 4.412 14.118 12.46
1 8.706 11.639 12.46
1 13.001 9.159 12.46
1 0.117 3.238 5.664
1 4.412 0.759 5.664
1 8.706 18.1146 5.664
1 13.001 15.6356 5.664
1 0.117 8.197 5.664
1 4.412 5.718 5.664
1 8.706 3.238 5.664
1 13.001 0.759 5.664
1 0.117 13.156 5.664
1 4.412 10.677 5.664
1 8.706 8.197 5.664
1 13.001 5.718 5.664
1 0.117 18.115 5.664
1 4.412 15.635 5.664
1 8.706 13.156 5.664
1 13.001 10.677 5.664
1 1.432 0.962 5.664
1 5.726 18.3186 5.664
1 10.021 15.8386 5.664
1 14.315 13.3596 5.664
1 1.432 5.921 5.664
1 5.726 3.441 5.664
1 10.021 0.962 5.664
1 14.315 18.3186 5.664
1 1.432 10.88 5.664
1 5.726 8.4 5.664
1 10.021 5.921 5.664
1 14.315 3.441 5.664
1 1.432 15.839 5.664
1 5.726 13.359 5.664
1 10.021 10.88 5.664
1 14.315 8.4 5.664
1 2.746 3.238 5.664
1 7.04 0.759 5.664
1 11.335 18.1146 5.664
1 15.629 15.6356 5.664
1 2.746 8.197 5.664
1 7.04 5.718 5.664
1 11.335 3.238 5.664
1 15.629 0.759 5.664
1 2.746 13.156 5.664
1 7.04 10.677 5.664
1 11.335 8.197 5.664
1 15.629 5.718 5.664
1 2.746 18.115 5.664
1 7.04 15.635 5.664
1 11.335 13.156 5.664
1 15.629 10.677 5.664
2 4.295 17.3566 4.724
2 8.589 14.8766 4.724
2 12.884 12.3976 4.724
2 0 4.959 4.724
2 4.295 2.479 4.724
2 8.589 0 4.724
2 12.884 17.3566 4.724
2 0 9.918 4.724
2 4.295 7.438 4.724
2 8.589 4.959 4.724
2 12.884 2.479 4.724
2 0 14.877 4.724
2 4.295 12.397 4.724
2 8.589 9.918 4.724
2 12.884 7.438 4.724
2 0 0 2.91016
2 4.295 17.3566 2.073
2 8.589 14.8766 2.073
2 12.884 12.3976 2.073
2 0 4.959 2.073
2 4.295 2.479 2.073
2 8.589 0 2.073
2 12.884 17.3566 2.073
2 0 9.918 2.073
2 4.295 7.438 2.073
2 8.589 4.959 2.073
2 12.884 2.479 2.073
2 0 14.877 2.073
2 4.295 12.397 2.073
2 8.589 9.918 2.073
2 12.884 7.438 2.073
2 0 0 8.869
2 4.295 17.3566 8.869
2 8.589 14.8766 8.869
2 12.884 12.3976 8.869
2 0 4.959 8.869
2 4.295 2.479 8.869
2 8.589 0 8.869
2 12.884 17.3566 8.869
2 0 9.918 8.869
2 4.295 7.438 8.869
2 8.589 4.959 8.869
2 12.884 2.479 8.869
2 0 14.877 8.869
2 4.295 12.397 8.869
2 8.589 9.918 8.869
2 12.884 7.438 8.869
2 0 0 11.52
2 4.295 17.3566 11.52
2 8.589 14.8766 11.52
2 12.884 12.3976 11.52
2 0 4.959 11.52
2 4.295 2.479 11.52
2 8.589 0 11.52
2 12.884 17.3566 11.52
2 0 9.918 11.52
2 4.295 7.438 11.52
2 8.589 4.959 11.52
2 12.884 2.479 11.52
2 0 14.877 11.52
2 4.295 12.397 11.52
2 8.589 9.918 11.52
2 12.884 7.438 11.52
2 2.863 0 9.255
2 7.158 17.3566 9.255
2 11.452 14.8766 9.255
2 15.747 12.3976 9.255
2 2.863 4.959 9.255
2 7.158 2.479 9.255
2 11.452 0 9.255
2 15.747 17.3566 9.255
2 2.863 9.918 9.255
2 7.158 7.438 9.255
2 11.452 4.959 9.255
2 15.747 2.479 9.255
2 2.863 14.877 9.255
2 7.158 12.397 9.255
2 11.452 9.918 9.255
2 15.747 7.438 9.255
2 2.863 0 6.604
2 7.158 17.3566 6.604
2 11.452 14.8766 6.604
2 15.747 12.3976 6.604
2 2.863 4.959 6.604
2 7.158 2.479 6.604
2 11.452 0 6.604
2 15.747 17.3566 6.604
2 2.863 9.918 6.604
2 7.158 7.438 6.604
2 11.452 4.959 6.604
2 15.747 2.479 6.604
2 2.863 14.877 6.604
2 7.158 12.397 6.604
2 11.452 9.918 6.604
2 15.747 7.438 6.604
2 2.863 0 13.401
2 7.158 17.3566 13.401
2 11.452 14.8766 13.401
2 15.747 12.3976 13.401
2 2.863 4.959 13.401
2 7.158 2.479 13.401
2 11.452 0 13.401
2 15.747 17.3566 13.401
2 2.863 9.918 13.401
2 7.158 7.438 13.401
2 11.452 4.959 13.401
2 15.747 2.479 13.401
2 2.863 14.877 13.401
2 7.158 12.397 13.401
2 11.452 9.918 13.401
2 15.747 7.438 13.401
2 2.863 0 2.458
2 7.158 17.3566 2.458
2 11.452 14.8766 2.458
2 15.747 12.3976 2.458
2 2.863 4.959 2.458
2 7.158 2.479 2.458
2 11.452 0 2.458
2 15.747 17.3566 2.458
2 2.863 9.918 2.458
2 7.158 7.438 2.458
2 11.452 4.959 2.458
2 15.747 2.479 2.458
2 2.863 14.877 2.458
2 7.158 12.397 2.458
2 11.452 9.918 2.458
2 15.747 7.438 2.458
2 1.432 2.479 0.193
2 5.726 0 0.193
2 10.021 17.3566 0.193
2 14.315 14.8766 0.193
2 1.432 7.438 0.193
2 5.726 4.959 0.193
2 10.021 2.479 0.193
2 14.315 0 0.193
2 1.432 12.397 0.193
2 5.726 9.918 0.193
2 10.021 7.438 0.193
2 14.315 4.959 0.193
2 1.432 17.356 0.193
2 5.726 14.877 0.193
2 10.021 12.397 0.193
2 14.315 9.918 0.193
2 1.432 2.479 11.135
2 5.726 0 11.135
2 10.021 17.3566 11.135
2 14.315 14.8766 11.135
2 1.432 7.438 11.135
2 5.726 4.959 11.135
2 10.021 2.479 11.135
2 14.315 0 11.135
2 1.432 12.397 11.135
2 5.726 9.918 11.135
2 10.021 7.438 11.135
2 14.315 4.959 11.135
2 1.432 17.356 11.135
2 5.726 14.877 11.135
2 10.021 12.397 11.135
2 14.315 9.918 11.135
2 1.432 2.479 4.338
2 5.726 0 4.338
2 10.021 17.3566 4.338
2 14.315 14.8766 4.338
2 1.432 7.438 4.338
2 5.726 4.959 4.338
2 10.021 2.479 4.338
2 14.315 0 4.338
2 1.432 12.397 4.338
2 5.726 9.918 4.338
2 10.021 7.438 4.338
2 14.315 4.959 4.338
2 1.432 17.356 4.338
2 5.726 14.877 4.338
2 10.021 12.397 4.338
2 14.315 9.918 4.338
2 1.432 2.479 6.989
2 5.726 0 6.989
2 10.021 17.3566 6.989
2 14.315 14.8766 6.989
2 1.432 7.438 6.989
2 5.726 4.959 6.989
2 10.021 2.479 6.989
2 14.315 0 6.989
2 1.432 12.397 6.989
2 5.726 9.918 6.989
2 10.021 7.438 6.989
2 14.315 4.959 6.989
2 1.432 17.356 6.989
2 5.726 14.877 6.989
2 10.021 12.397 6.989
2 14.315 9.918 6.9847479
Atoms. Timestep: 773
1 1.45197 19.0005 3.49045
1 5.62326 16.5892 3.40133
1 9.88342 14.1172 3.39751
1 14.1748 11.6372 3.39538
1 1.31551 4.26979 3.42358
1 5.61985 1.74695 3.43013
1 9.87481 19.0906 3.3989
1 14.1348 16.5819 3.37913
1 1.30214 9.17126 3.3948
1 5.60073 6.69915 3.40074
1 9.87828 4.22054 3.40293
1 14.1358 1.74636 3.4
1 1.30868 14.0948 3.3797
1 5.60084 11.6383 3.39629
1 9.88322 9.16885 3.40076
1 14.1693 6.7024 3.39496
1 -0.00300628 1.67774 3.49018
1 4.33484 18.824 3.37828
1 8.5895 16.3672 3.39854
1 12.8771 13.8779 3.39614
1 -0.00184834 6.49547 3.40151
1 4.31457 4.005 3.38177
1 8.588 1.50666 3.39865
1 12.8284 18.8405 3.42402
1 0.00132236 11.4036 3.3981
1 4.30353 8.94309 3.39631
1 8.58914 6.468 3.39873
1 12.8567 4.00305 3.4299
1 0.0115258 16.3238 3.39917
1 4.30452 13.8728 3.39797
1 8.5894 11.4112 3.39856
1 12.8756 8.9418 3.39932
1 3.03118 1.76627 3.39808
1 7.29573 19.0908 3.39392
1 11.557 16.5858 3.40189
1 15.8747 14.0897 3.43186
1 3.01193 6.70781 3.39905
1 7.29893 4.22221 3.39397
1 11.5602 1.7399 3.38123
1 15.7295 18.9951 3.49055
1 3.0038 11.6363 3.40196
1 7.2955 9.16871 3.39616
1 11.5784 6.69829 3.39647
1 15.8847 4.2654 3.37877
1 3.03664 16.5608 3.42312
1 7.2945 14.1176 3.39904
1 11.5785 11.6394 3.39933
1 15.8765 9.17168 3.40247
1 3.00608 18.0986 10.1894
1 7.29617 15.6162 10.1931
1 11.5831 13.1433 10.1914
1 15.8796 10.6651 10.1937
1 3.02025 3.25197 10.1914
1 7.29888 0.743353 10.1848
1 11.5743 18.0962 10.1836
1 15.8727 15.5946 10.1771
1 2.99755 8.19105 10.1994
1 7.29367 5.7175 10.1968
1 11.57 3.23903 10.1937
1 15.8805 0.7492 10.1866
1 3.00834 13.137 10.1978
1 7.29252 10.6678 10.1978
1 11.5826 8.19526 10.1975
1 15.8783 5.72273 10.2017
1 0.000183362 3.4725 10.1903
1 4.32449 0.989116 10.1778
1 8.58929 18.3291 10.1948
1 12.8736 15.8464 10.2021
1 6.97525e-05 8.42625 10.1943
1 4.2975 5.95611 10.1972
1 8.58869 3.46881 10.1944
1 12.8527 0.990712 10.1907
1 0.00104607 13.3584 10.1944
1 4.29732 10.8947 10.1909
1 8.58919 8.42534 10.1947
1 12.8811 5.95658 10.1901
1 -0.000260675 18.3358 10.1868
1 4.30511 15.8464 10.1843
1 8.58914 13.3704 10.1946
1 12.8809 10.8948 10.198
1 1.29839 0.748443 10.1871
1 5.60396 18.0965 10.2028
1 9.88225 15.6161 10.1954
1 14.1695 13.137 10.1895
1 1.30004 5.72307 10.1849
1 5.60747 3.24061 10.195
1 9.87992 0.743581 10.2019
1 14.1723 18.0987 10.1913
1 1.29929 10.6647 10.1954
1 5.5957 8.19522 10.1913
1 9.88471 5.71693 10.1922
1 14.1602 3.25168 10.1772
1 1.30495 15.5927 10.1917
1 5.59503 13.1433 10.1982
1 9.88549 10.6679 10.1914
1 14.1809 8.1913 10.19
1 4.17352 19.0822 7.95157
1 8.45649 16.6029 7.93369
1 12.7474 14.1268 7.9252
1 17.0429 11.6362 7.92897
1 4.18006 4.23296 7.94582
1 8.45124 1.73961 7.93864
1 12.7286 19.0982 7.94586
1 17.0608 16.5857 7.97116
1 4.16545 9.16718 7.9302
1 8.45674 6.69721 7.93186
1 12.7333 4.21737 7.92525
1 17.0353 1.73386 7.92069
1 4.17281 14.111 7.92094
1 8.45782 11.6444 7.92814
1 12.7484 9.16853 7.92788
1 17.0419 6.69621 7.9348
1 2.87081 1.52375 7.97188
1 7.1534 18.8502 7.92688
1 11.4477 16.367 7.93574
1 15.7503 13.8768 7.92469
1 2.86919 6.47416 7.92171
1 7.16248 3.99012 7.93206
1 11.4246 1.50838 7.94381
1 15.7486 18.8452 7.92041
1 2.86542 11.4039 7.93114
1 7.16134 8.94233 7.9301
1 11.4477 6.4679 7.93422
1 15.7433 3.99377 7.95068
1 2.86386 16.3482 7.94476
1 7.16241 13.8875 7.93186
1 11.4531 11.4148 7.93001
1 15.7431 8.93764 7.93102
1 1.57121 19.0922 7.91903
1 5.86514 16.6018 7.93403
1 10.1533 14.1197 7.93297
1 14.445 11.6398 7.93561
1 1.58598 4.22352 7.94488
1 5.86711 1.74549 7.92175
1 10.1373 19.0845 7.921
1 14.4376 16.5961 7.95197
1 1.56674 9.16818 7.93487
1 5.87082 6.69918 7.93261
1 10.1487 4.2214 7.92792
1 14.4236 1.72737 7.9706
1 1.57287 14.0969 7.946
1 5.86433 11.6427 7.93318
1 10.1554 9.17095 7.92881
1 14.4507 6.6912 7.9254
1 1.94952 0.861584 1.04139
1 5.89941 18.0748 1.12167
1 10.1384 15.613 1.12002
1 14.4282 13.1047 1.12411
1 1.56278 5.73358 1.14124
1 5.87335 3.23356 1.13048
1 10.1495 0.746527 1.13101
1 14.4012 18.0769 1.10904
1 1.57354 10.6718 1.13242
1 5.86235 8.19255 1.13244
1 10.1403 5.71474 1.13065
1 14.3638 3.37999 1.14697
1 1.60084 15.5991 1.12385
1 5.86705 13.1367 1.12964
1 10.1472 10.6655 1.13355
1 14.4408 8.2072 1.14044
1 2.90961 18.3059 1.10858
1 7.16676 15.837 1.12137
1 11.4387 13.3591 1.13854
1 15.7501 10.891 1.12956
1 2.86755 3.50566 1.12499
1 7.19952 0.984336 1.1235
1 11.4407 18.3191 1.1392
1 15.6599 15.7058 1.14664
1 2.86825 8.43024 1.13165
1 7.156 5.9483 1.1324
1 11.4437 3.47535 1.13046
1 15.4596 1.25933 1.04161
1 2.87603 13.3605 1.13141
1 7.15839 10.8939 1.13148
1 11.4409 8.42842 1.13449
1 15.7494 5.99473 1.12356
1 4.33219 0.747957 1.14699
1 8.46431 18.0961 1.14007
1 12.7043 15.5987 1.12556
1 17.0397 13.1323 1.12901
1 4.17114 5.72898 1.13121
1 8.46235 3.23704 1.12833
1 12.7179 0.730384 1.12771
1 16.9495 17.7139 1.043
1 4.16673 10.6675 1.13112
1 8.45432 8.19003 1.13061
1 12.7238 5.74824 1.12152
1 17.0475 3.28766 1.10902
1 4.1806 15.6156 1.13992
1 8.45273 13.1365 1.13306
1 12.7384 10.6598 1.13056
1 17.0506 8.20994 1.12069
1 2.76693 1.736 12.3651
1 7.04312 19.0837 12.4695
1 11.3121 16.601 12.4527
1 15.6047 14.0929 12.4306
1 2.72725 6.69 12.4635
1 7.02939 4.22153 12.4612
1 11.3086 1.74431 12.4637
1 15.6036 19.0884 12.4562
1 2.73424 11.6391 12.4531
1 7.02287 9.1711 12.4607
1 11.3069 6.69974 12.4559
1 15.5939 4.22609 12.4364
1 2.74546 16.5957 12.4313
1 7.02522 14.1195 12.4557
1 11.3137 11.6424 12.4563
1 15.612 9.16835 12.454
1 1.43324 3.99814 12.4325
1 5.7575 1.50964 12.4326
1 10.0266 18.8504 12.4619
1 14.3115 16.3482 12.4366
1 1.43537 8.93805 12.4579
1 5.7309 6.4689 12.4544
1 10.0163 3.99007 12.4567
1 14.2942 1.53004 12.3636
1 1.43055 13.875 12.4611
1 5.72522 11.4149 12.4598
1 10.0168 8.94244 12.4592
1 14.309 6.47621 12.4688
1 1.43485 18.8439 12.4548
1 5.73199 16.3662 12.451
1 10.0154 13.8873 12.4573
1 14.3127 11.4032 12.4574
1 0.141638 1.739 12.4544
1 4.45132 19.0958 12.4355
1 8.72186 16.6024 12.4547
1 13.0038 14.1098 12.4696
1 0.136523 6.69778 12.452
1 4.44552 4.22051 12.4605
1 8.72691 1.73959 12.4491
1 13.0021 19.0785 12.4316
1 0.135865 11.6366 12.4601
1 4.4301 9.1682 12.4615
1 8.7212 6.69702 12.4574
1 12.9954 4.23575 12.4308
1 0.119013 16.5712 12.365
1 4.43006 14.1278 12.4637
1 8.72034 11.6444 12.4612
1 13.0126 9.16725 12.459
1 0.148776 3.30074 5.71106
1 4.4451 0.735901 5.66799
1 8.71432 18.0967 5.65628
1 13.0015 15.6149 5.65835
1 0.128545 8.20708 5.67607
1 4.44858 5.74119 5.67378
1 8.71628 3.2359 5.66817
1 12.8994 0.749628 5.64625
1 0.139066 13.1319 5.66783
1 4.43907 10.6611 5.66627
1 8.72412 8.19044 5.66641
1 13.0083 5.72408 5.66979
1 0.203458 17.8676 5.6633
1 4.46653 15.6001 5.67038
1 8.72585 13.1372 5.66379
1 13.0132 10.6692 5.66545
1 1.59824 1.15964 5.66321
1 5.73681 18.323 5.65941
1 10.013 15.8391 5.67576
1 14.3062 13.3639 5.66956
1 1.43153 5.98733 5.67224
1 5.73466 3.47571 5.6664
1 9.98581 0.982938 5.67159
1 14.2483 18.3147 5.71149
1 1.42988 10.8918 5.66642
1 5.73612 8.42741 5.66233
1 10.0215 5.9481 5.6647
1 14.3144 3.48915 5.67058
1 1.49037 15.7515 5.64643
1 5.73875 13.3603 5.65857
1 10.0201 10.894 5.66511
1 14.3102 8.42915 5.66468
1 2.78894 3.33269 5.64651
1 7.02584 0.748051 5.66973
1 11.2839 18.0806 5.67409
1 15.5901 15.6106 5.67171
1 2.73722 8.20572 5.6567
1 7.03601 5.71528 5.66552
1 11.3044 3.23321 5.66682
1 15.375 0.806877 5.66364
1 2.74699 13.1133 5.67135
1 7.03063 10.6653 5.66323
1 11.317 8.19107 5.66396
1 15.6131 5.73067 5.65718
1 2.78002 18.0548 5.71103
1 7.03764 15.6142 5.67653
1 11.3122 13.1375 5.66615
1 15.6059 10.6706 5.6651
2 4.30816 17.3484 4.8609
2 8.5917 14.8763 4.86855
2 12.8879 12.4044 4.86815
2 -0.00198433 4.97671 4.86124
2 4.29152 2.47512 4.86085
2 8.57004 0.00196291 4.8635
2 12.8711 17.3468 4.86238
2 -0.00395765 9.92194 4.86719
2 4.30067 7.44583 4.86271
2 8.59052 4.95488 4.86592
2 12.8886 2.48025 4.8603
2 -0.00332973 14.8813 4.86095
2 4.30011 12.389 4.86224
2 8.5925 9.9147 4.86689
2 12.8864 7.43109 4.86712
2 0.000263829 0.00201051 4.0236
2 4.30568 17.3626 1.93749
2 8.58653 14.8751 1.92707
2 12.8778 12.3871 1.93471
2 -0.0107075 4.96765 1.93872
2 4.27335 2.45178 1.91811
2 8.60242 0.00130771 1.93265
2 12.8846 17.342 1.93892
2 0.00426207 9.92351 1.92822
2 4.29511 7.4384 1.92853
2 8.58806 4.95444 1.92934
2 12.919 2.47519 1.9177
2 -0.0127635 14.9095 1.91747
2 4.29579 12.3983 1.92768
2 8.58617 9.91466 1.92914
2 12.8762 7.44735 1.93401
2 0.0002574 6.5321e-05 8.72313
2 4.28538 17.3591 8.72431
2 8.59192 14.8769 8.72835
2 12.8869 12.4053 8.72314
2 0.00260356 4.9478 8.72468
2 4.2983 2.48669 8.73024
2 8.57968 0.000439146 8.72394
2 12.8907 17.3654 8.72578
2 -0.00257177 9.91618 8.7276
2 4.29609 7.43652 8.72844
2 8.58897 4.96039 8.7269
2 12.8742 2.479 8.72966
2 0.00410396 14.87 8.73029
2 4.29257 12.3945 8.72787
2 8.5918 9.91848 8.72679
2 12.8897 7.43265 8.72183
2 -6.1798e-05 0.00010935 11.6791
2 4.28811 17.3646 11.6599
2 8.58638 14.8768 11.661
2 12.8859 12.3945 11.6624
2 -0.00187322 4.94867 11.661
2 4.31028 2.48444 11.648
2 8.59945 6.06216e-05 11.6674
2 12.8921 17.3593 11.6614
2 0.00252662 9.91665 11.6627
2 4.28784 7.43218 11.669
2 8.58988 4.96002 11.6642
2 12.8721 2.48931 11.6474
2 -0.00229711 14.862 11.6474
2 4.29154 12.4062 11.6677
2 8.58671 9.91831 11.663
2 12.8824 7.43645 11.6618
2 2.867 0.00958769 9.37372
2 7.1533 17.3558 9.39781
2 11.4567 14.8831 9.39761
2 15.7451 12.3964 9.39591
2 2.86279 4.95652 9.39856
2 7.1594 2.47902 9.39458
2 11.4498 0.00100902 9.39827
2 15.7531 17.3493 9.37432
2 2.86159 9.91481 9.39752
2 7.15759 7.44031 9.39717
2 11.4516 4.96109 9.39525
2 15.7364 2.47667 9.37382
2 2.86153 14.8781 9.39789
2 7.15578 12.3984 9.39946
2 11.4566 9.918 9.39693
2 15.7502 7.4318 9.3965
2 2.8028 -0.00943623 6.38848
2 7.15523 17.3617 6.46163
2 11.4585 14.8738 6.46291
2 15.743 12.4071 6.45801
2 2.87133 4.98834 6.462
2 7.15193 2.47253 6.45733
2 11.4205 -0.00599445 6.46055
2 15.7684 17.412 6.39016
2 2.86387 9.92112 6.45963
2 7.15959 7.43594 6.46061
2 11.4599 4.95629 6.4577
2 15.7835 2.43375 6.38957
2 2.88438 14.8542 6.46102
2 7.16056 12.3943 6.46087
2 11.4548 9.91694 6.45991
2 15.7402 7.43691 6.46178
2 2.88509 0.0307924 13.2254
2 7.15995 17.3458 13.2576
2 11.4411 14.8797 13.2575
2 15.7498 12.3952 13.2592
2 2.84488 4.92736 13.2623
2 7.16275 2.48234 13.2587
2 11.4904 0.000828298 13.2633
2 15.7619 17.3225 13.2264
2 2.86047 9.92091 13.258
2 7.15516 7.43552 13.2575
2 11.4503 4.95759 13.259
2 15.7105 2.48275 13.2252
2 2.84508 14.91 13.262
2 7.15584 12.3982 13.2574
2 11.451 9.91519 13.2575
2 15.7558 7.4451 13.2575
2 2.80191 -0.000309554 2.50374
2 7.16281 17.3587 2.5994
2 11.4481 14.8714 2.5999
2 15.7502 12.4036 2.60011
2 2.86927 4.95976 2.59826
2 7.14918 2.47914 2.59951
2 11.4549 0.00604275 2.59883
2 15.7766 17.4083 2.50542
2 2.86615 9.91827 2.60038
2 7.15883 7.43415 2.60014
2 11.4545 4.951 2.60039
2 15.7773 2.42926 2.50436
2 2.86068 14.8713 2.59764
2 7.15939 12.3954 2.5999
2 11.4458 9.91605 2.60204
2 15.7432 7.44606 2.60023
2 1.38251 2.42147 0.405738
2 5.76537 -0.0102939 0.338028
2 10.0255 17.3622 0.335919
2 14.2858 14.8485 0.338466
2 1.43725 7.43495 0.335647
2 5.71615 4.95413 0.340304
2 10.0282 2.47164 0.340668
2 14.3924 -0.0134788 0.407193
2 1.43488 12.4104 0.34
2 5.72502 9.91706 0.334674
2 10.0195 7.43486 0.335918
2 14.3061 4.99815 0.337554
2 1.40524 17.4286 0.405017
2 5.71831 14.8756 0.334435
2 10.0181 12.3938 0.335595
2 14.3148 9.92229 0.337029
2 1.44646 2.47543 11.0155
2 5.72864 0.00242641 10.9891
2 10.0251 17.3557 10.9922
2 14.3181 14.8777 10.9897
2 1.42782 7.4321 10.9935
2 5.72784 4.96355 10.9949
2 10.0161 2.47843 10.9955
2 14.3102 0.0142011 11.0158
2 1.43489 12.3945 10.9942
2 5.72146 9.91791 10.9923
2 10.0211 7.43986 10.9926
2 14.3146 4.95552 10.989
2 1.42179 17.346 11.0151
2 5.7219 14.8832 10.9922
2 10.0226 12.3983 10.9903
2 14.3168 9.91518 10.9922
2 1.46382 2.53541 4.26371
2 5.70557 0.00239345 4.17435
2 10.0165 17.362 4.19497
2 14.3234 14.8887 4.17576
2 1.43631 7.4435 4.19396
2 5.72502 4.95535 4.19289
2 10.0237 2.47721 4.1932
2 14.2531 0.00148498 4.26479
2 1.43099 12.4003 4.19323
2 5.73264 9.91605 4.19456
2 10.0213 7.43377 4.19603
2 14.3214 4.94605 4.17486
2 1.46191 17.3009 4.26353
2 5.72786 14.8712 4.19442
2 10.0205 12.3954 4.19706
2 14.3112 9.91885 4.19595
2 1.44533 2.47798 7.14358
2 5.69552 0.00110257 7.12205
2 10.0193 17.3478 7.13123
2 14.3301 14.9032 7.12328
2 1.42391 7.4438 7.13122
2 5.73012 4.95869 7.13004
2 10.0145 2.4838 7.13018
2 14.3081 0.0135244 7.1438
2 1.42833 12.393 7.12985
2 5.72735 9.91564 7.13235
2 10.0233 7.43641 7.13218
2 14.3291 4.93351 7.12286
2 1.42337 17.3442 7.14314
2 5.73545 14.8789 7.13126
2 10.0228 12.3972 7.13235
2 14.3172 9.92071 7.1479
Ato479
Atoms. Timestep: 1222
1479
Atoms. Timestep: 1222
1 1.42535 19.0013 3.21718
1 5.61932 16.5863 3.39063
1 9.88436 14.1186 3.39775
1 14.1746 11.6359 3.39385
1 1.27722 4.25794 3.40902
1 5.61634 1.73571 3.40343
1 9.88971 19.0911 3.4051
1 14.1527 16.5621 3.37278
1 1.30139 9.17118 3.39382
1 5.59871 6.69655 3.39978
1 9.8804 4.22272 3.4029
1 14.157 1.7691 3.39865
1 1.30246 14.093 3.36533
1 5.5982 11.6412 3.39863
1 9.88266 9.16898 3.39994
1 14.1664 6.7079 3.39909
1 0.00991604 1.65409 3.21779
1 4.34386 18.8496 3.37185
1 8.58877 16.3674 3.39803
1 12.8737 13.8727 3.40001
1 0.00319882 6.49341 3.39122
1 4.31967 4.00018 3.36719
1 8.59289 1.50649 3.39743
1 12.8583 18.8137 3.40958
1 17.1758 11.404 3.39931
1 4.30158 8.93999 3.39859
1 8.58914 6.46779 3.39721
1 12.8685 4.00506 3.40269
1 17.1597 16.3312 3.39734
1 4.29714 13.8837 3.40235
1 8.58838 11.4115 3.39751
1 12.8752 8.94309 3.40037
1 3.04028 1.73649 3.39677
1 7.3063 19.0906 3.40076
1 11.5563 16.5911 3.39122
1 15.8675 14.0989 3.40473
1 3.00611 6.69598 3.40352
1 7.30044 4.21922 3.39407
1 11.5621 1.74646 3.36704
1 15.7435 19.018 3.21734
1 3.00265 11.6388 3.40072
1 7.29438 9.16902 3.39553
1 11.5774 6.69932 3.39517
1 15.8585 4.2596 3.37242
1 3.04534 16.6001 3.40886
1 7.2946 14.118 3.39919
1 11.5772 11.6385 3.40043
1 15.8765 9.17046 3.40143
1 3.00745 18.0999 10.2036
1 7.29589 15.616 10.195
1 11.5835 13.143 10.1908
1 15.8787 10.6644 10.1948
1 3.01583 3.24928 10.2233
1 7.29794 0.743862 10.19
1 11.5749 18.0972 10.1901
1 15.8743 15.5951 10.2101
1 2.9973 8.19147 10.1996
1 7.29348 5.71604 10.1977
1 11.5725 3.24173 10.196
1 15.8796 0.749462 10.209
1 3.00919 13.1374 10.2027
1 7.2931 10.668 10.1985
1 11.5828 8.19507 10.1988
1 15.8785 5.72258 10.2039
1 17.1765 3.47309 10.2046
1 4.32314 0.990339 10.2115
1 8.58923 18.3294 10.194
1 12.8735 15.8468 10.2044
1 0.000368649 8.42614 10.1962
1 4.29656 5.95667 10.202
1 8.59086 3.46873 10.1956
1 12.8571 0.988358 10.2228
1 17.1756 13.3592 10.1964
1 4.29755 10.8949 10.192
1 8.58907 8.42512 10.1952
1 12.8808 5.95543 10.1944
1 17.1779 18.3351 10.2093
1 4.30412 15.8466 10.1908
1 8.5894 13.3705 10.1953
1 12.8812 10.8946 10.1991
1 1.29881 0.748985 10.2094
1 5.6035 18.0962 10.2053
1 9.88221 15.6166 10.1976
1 14.1707 13.1372 10.1938
1 1.30021 5.72203 10.1911
1 5.60861 3.23712 10.1973
1 9.87955 0.742982 10.2076
1 14.1726 18.0969 10.2055
1 1.29822 10.6657 10.1961
1 5.59567 8.19521 10.1927
1 9.88467 5.71786 10.1932
1 14.1598 3.24992 10.2106
1 1.30473 15.5979 10.2232
1 5.59541 13.1434 10.198
1 9.88606 10.6676 10.1922
1 14.1806 8.19097 10.1897
1 4.17347 19.0787 7.95601
1 8.45605 16.6019 7.93604
1 12.7494 14.1286 7.92561
1 17.0423 11.6374 7.92973
1 4.18469 4.23831 7.97054
1 8.4513 1.7389 7.94202
1 12.7266 19.0913 7.95762
1 17.0552 16.5686 8.03835
1 4.16593 9.16728 7.93067
1 8.4575 6.6965 7.93211
1 12.7338 4.22167 7.93296
1 17.0396 1.74171 7.93892
1 4.17539 14.1095 7.919
1 8.45824 11.6445 7.9284
1 12.7485 9.16811 7.92823
1 17.042 6.69842 7.93911
1 2.88847 1.52793 8.04001
1 7.15039 18.8509 7.9273
1 11.4455 16.3661 7.93997
1 15.7462 13.8753 7.93237
1 2.8692 6.47707 7.91989
1 7.16169 3.98955 7.93329
1 11.4176 1.50983 7.96891
1 15.7399 18.8451 7.9384
1 2.8659 11.4032 7.93288
1 7.16169 8.94235 7.93039
1 11.4479 6.4691 7.93611
1 15.7465 3.99579 7.95513
1 2.87113 16.3502 7.95654
1 7.1632 13.8873 7.93246
1 11.4532 11.415 7.92971
1 15.7435 8.93832 7.93251
1 1.5756 19.0845 7.93694
1 5.86656 16.6006 7.93836
1 10.1531 14.1199 7.93493
1 14.4438 11.6391 7.93727
1 1.58064 4.22876 7.95679
1 5.87022 1.74281 7.92991
1 10.1343 19.0832 7.91918
1 14.4343 16.5981 7.95624
1 1.56613 9.16869 7.93588
1 5.8716 6.69988 7.93452
1 10.1494 4.22122 7.92832
1 14.4111 1.74085 8.03838
1 1.57512 14.09 7.97075
1 5.86484 11.6422 7.9333
1 10.1557 9.17085 7.92904
1 14.4514 6.68877 7.92571
1 1.68695 0.770426 1.14047
1 5.89112 18.0881 1.124
1 10.1433 15.6146 1.12077
1 14.4349 13.1223 1.12686
1 1.5655 5.72531 1.1372
1 5.87441 3.23187 1.13052
1 10.1547 0.748827 1.12294
1 14.4006 18.0475 1.06537
1 1.57102 10.6697 1.13119
1 5.86005 8.18946 1.13324
1 10.1444 5.71582 1.13165
1 14.4093 3.28816 1.14132
1 1.57891 15.6199 1.12962
1 5.86458 13.1396 1.13191
1 10.1482 10.6651 1.13295
1 14.4413 8.20412 1.1391
1 2.93546 18.3206 1.06486
1 7.16493 15.8418 1.1211
1 11.4406 13.3612 1.13722
1 15.7469 10.8927 1.13097
1 2.86091 3.47649 1.13068
1 7.18556 0.981638 1.12741
1 11.4458 18.326 1.13486
1 15.7167 15.7909 1.14131
1 2.86718 8.42715 1.13292
1 7.15734 5.94729 1.13186
1 11.4447 3.47621 1.13132
1 15.6699 1.07654 1.14061
1 2.86888 13.3671 1.123
1 7.15738 10.8943 1.13181
1 11.4439 8.42625 1.1338
1 15.7426 5.97979 1.12556
1 4.23132 0.754866 1.14171
1 8.46523 18.0975 1.14093
1 12.7203 15.6001 1.12729
1 17.0383 13.1323 1.12989
1 4.16871 5.71981 1.12276
1 8.46248 3.23468 1.12912
1 12.745 0.739705 1.13306
1 17.0014 17.987 1.14029
1 4.16324 10.6705 1.13189
1 8.45386 8.19072 1.12994
1 12.7358 5.73374 1.12459
1 17.022 3.30201 1.06532
1 4.17227 15.6174 1.13623
1 8.45201 13.1381 1.13278
1 12.7403 10.6627 1.12997
1 17.0483 8.20454 1.12098
1 2.7469 1.72476 12.4468
1 7.04016 19.0851 12.4663
1 11.3144 16.6019 12.4579
1 15.6067 14.1012 12.4534
1 2.72765 6.69222 12.4651
1 7.02984 4.22054 12.4624
1 11.3132 1.74597 12.4711
1 15.6062 19.0914 12.4673
1 2.73233 11.6401 12.4546
1 7.02279 9.17059 12.4609
1 11.3083 6.69867 12.4582
1 15.592 4.22497 12.4475
1 2.73758 16.595 12.4424
1 7.02526 14.12 12.457
1 11.3143 11.6429 12.4563
1 15.6108 9.16785 12.4554
1 1.4376 3.99148 12.4437
1 5.75012 1.50722 12.4559
1 10.0239 18.8499 12.4636
1 14.3135 16.3472 12.4475
1 1.4348 8.93754 12.4587
1 5.73056 6.46688 12.4559
1 10.0165 3.99021 12.4585
1 14.3137 1.51797 12.4456
1 1.42639 13.8784 12.4679
1 5.7251 11.4149 12.4596
1 10.0172 8.9421 12.4598
1 14.3092 6.47299 12.4654
1 1.43111 18.8448 12.4661
1 5.73023 16.368 12.4564
1 10.0167 13.8875 12.4583
1 14.313 11.4047 12.4596
1 0.142814 1.73504 12.4659
1 4.45135 19.0978 12.4463
1 8.72209 16.6036 12.4565
1 13.0066 14.1116 12.4661
1 0.135859 6.69502 12.4571
1 4.44452 4.21513 12.4674
1 8.72728 1.73967 12.4526
1 13.0056 19.0854 12.4428
1 0.134547 11.6365 12.4614
1 4.42968 9.1688 12.4623
1 8.72183 6.69715 12.4581
1 13.0013 4.22977 12.4536
1 0.119344 16.5938 12.4459
1 4.43179 14.1262 12.4653
1 8.72046 11.6446 12.4618
1 13.0131 9.16726 12.4596
1 0.120763 3.2606 5.67018
1 4.46389 0.732437 5.6742
1 8.71345 18.0956 5.65729
1 13.0007 15.6219 5.65644
1 0.128212 8.21041 5.67574
1 4.45567 5.75005 5.67681
1 8.71553 3.23733 5.66849
1 12.8374 0.753322 5.67998
1 0.139926 13.1339 5.66773
1 4.44006 10.6592 5.66555
1 8.7241 8.18959 5.66539
1 13.0076 5.73013 5.66544
1 0.21782 17.6982 5.76511
1 4.47198 15.6001 5.66953
1 8.72548 13.1364 5.66318
1 13.0114 10.6667 5.66497
1 1.7377 1.25763 5.76703
1 5.73083 18.3184 5.65683
1 10.011 15.8372 5.67474
1 14.301 13.3602 5.66513
1 1.42884 5.99229 5.67171
1 5.73293 3.4757 5.66631
1 9.97723 0.984271 5.67473
1 14.2972 18.3107 5.67061
1 1.42757 10.891 5.66764
1 5.7379 8.42855 5.66188
1 10.0233 5.94757 5.66371
1 14.3071 3.50767 5.67691
1 1.51821 15.6952 5.68046
1 5.73912 13.3599 5.65864
1 10.0201 10.8942 5.66475
1 14.3115 8.42938 5.6646
1 2.82385 3.38492 5.67964
1 7.02931 0.745615 5.66555
1 11.2808 18.0759 5.67342
1 15.5776 15.5949 5.678
1 2.73702 8.20653 5.65671
1 7.03887 5.71407 5.66643
1 11.3056 3.23166 5.6659
1 15.2209 0.87899 5.76695
1 2.75133 13.1029 5.67404
1 7.03118 10.6657 5.66288
1 11.3158 8.19284 5.66399
1 15.6195 5.728 5.65511
1 2.7586 18.0993 5.67008
1 7.03976 15.6124 5.6765
1 11.3116 13.1381 5.66704
1 15.6049 10.6729 5.66337
2 4.27085 17.3417 4.85075
2 8.59152 14.8747 4.86955