LAMMPS (28 Jun 2014)
Processor partition = 16
Reading data file ...
  orthogonal box = (0 0 0) to (17.1781 19.8356 13.5931)
  1 by 1 by 1 MPI processor grid
  reading atoms ...
  479 atoms
288 atoms in group oxygen
191 atoms in group chromium
WARNING: Resetting reneighboring criteria during minimization (../min.cpp:168)
PPPM initialization ...
WARNING: System is not charge neutral, net charge = -3 (../kspace.cpp:278)
  G vector (1/distance) = 0.315056
  grid = 18 18 15
  stencil order = 5
  estimated absolute RMS force accuracy = 0.00121169
  estimated relative force accuracy = 8.41472e-05
  using double precision FFTs
  3d grid and FFT values/proc = 13750 4860
Setting up minimization ...
Memory usage per processor = 4.77571 Mbytes
Step PotEng Pxx Pyy Pzz Pxy Pxz Pyz Lx Ly Lz Temp 
       0   -14739.532   -134790.97   -135330.75   -31833.109 -0.069333039     15.51201   -2.4806886      17.1781      19.8356     13.59308            0 
     100   -14820.357   -79939.597   -79955.612   -180375.87    1.0328323   -6.4822827   -7.6649866      17.1781      19.8356     13.59308 0.00057420517 
     200   -14820.542   -80407.211   -80403.672   -180230.94    4.0901913   -18.655935   -9.4491029      17.1781      19.8356     13.59308  0.006332395 
     300   -14820.605   -80567.367   -80561.236   -180146.23    3.9518539   -18.310205   -7.9046916      17.1781      19.8356     13.59308 1.045597e-05 
     400   -14820.646   -80673.656    -80668.72   -180077.06    4.4615227   -18.200683   -6.2993853      17.1781      19.8356     13.59308 0.00044265423 
     500   -14820.658   -80708.111   -80702.795   -180053.65    4.3165382   -18.975592   -6.2931058      17.1781      19.8356     13.59308 7.2522461e-05 
     600   -14820.664   -80723.948   -80718.005   -180043.83    4.4853875   -19.133426   -6.1896092      17.1781      19.8356     13.59308 1.5782415e-05 
     700   -14820.667   -80731.621   -80725.936   -180037.81    4.5251023   -19.266847   -6.1417015      17.1781      19.8356     13.59308 2.1873799e-07 
     773   -14820.669   -80736.174   -80730.575   -180034.55     4.521306   -19.262174   -6.1127293      17.1781      19.8356     13.59308 2.6034451e-07 
Loop time of 31.0999 on 1 procs for 773 steps with 479 atoms

Minimization stats:
  Stopping criterion = force tolerance
  Energy initial, next-to-last, final = 
        -14739.5315881     -14820.6688589     -14820.6688746
  Force two-norm initial, final = 88.038 0.000846415
  Force max component initial, final = 13.3747 0.00059597
  Final line search alpha, max atom move = 0 0
  Iterations, force evaluations = 773 773

Pair  time (%) = 17.4868 (56.2278)
Kspce time (%) = 1.75462 (5.64188)
Neigh time (%) = 0 (0)
Comm  time (%) = 0.0633926 (0.203836)
Outpt time (%) = 0.000219107 (0.000704526)
Other time (%) = 11.7949 (37.9257)

Nlocal:    479 ave 479 max 479 min
Histogram: 1 0 0 0 0 0 0 0 0 0
Nghost:    6479 ave 6479 max 6479 min
Histogram: 1 0 0 0 0 0 0 0 0 0
Neighs:    178995 ave 178995 max 178995 min
Histogram: 1 0 0 0 0 0 0 0 0 0

Total # of neighbors = 178995
Ave neighs/atom = 373.685
Neighbor list builds = 0
Dangerous builds = 0
WARNING: Resetting reneighboring criteria during minimization (../min.cpp:168)
Setting up minimization ...
Memory usage per processor = 4.77571 Mbytes
Step PotEng Pxx Pyy Pzz Pxy Pxz Pyz Lx Ly Lz Temp 
     773   -14820.669   -80736.174   -80730.575   -180034.55     4.521306   -19.262174   -6.1127293      17.1781      19.8356     13.59308            0 
     800   -14820.669   -80737.126   -80731.524   -180033.87    4.5308457   -19.249281   -6.1134793      17.1781      19.8356     13.59308 7.0415235e-06 
     900   -14820.687    -80786.08    -80778.34   -179999.06    4.4834624   -19.847413   -5.5206946      17.1781      19.8356     13.59308 0.0014589302 
    1000   -14820.704   -80829.277   -80822.728   -179968.34    4.2581967   -19.915279   -5.3916677      17.1781      19.8356     13.59308 8.2729357e-06 
    1100   -14820.711   -80849.938    -80843.21   -179950.22    4.1416147   -19.623552   -5.3248381      17.1781      19.8356     13.59308 2.9531252e-08 
    1200   -14820.713   -80854.857   -80848.448   -179945.46    4.1417754   -19.573049   -5.3226804      17.1781      19.8356     13.59308 4.7926791e-07 
    1222   -14820.713    -80855.88   -80849.462   -179944.59    4.1323172   -19.568509   -5.3153195      17.1781      19.8356     13.59308 5.3020138e-08 
Loop time of 17.9794 on 1 procs for 449 steps with 479 atoms

Minimization stats:
  Stopping criterion = force tolerance
  Energy initial, next-to-last, final = 
        -14820.6688746     -14820.7134196     -14820.7134428
  Force two-norm initial, final = 0.000846415 0.000824228
  Force max component initial, final = 0.00059597 0.000544331
  Final line search alpha, max atom move = 0 0
  Iterations, force evaluations = 449 449

Pair  time (%) = 9.53068 (53.0088)
Kspce time (%) = 0.999649 (5.55996)
Neigh time (%) = 0 (0)
Comm  time (%) = 0.0426297 (0.237103)
Outpt time (%) = 0.000189066 (0.00105157)
Other time (%) = 7.40628 (41.1931)

Nlocal:    479 ave 479 max 479 min
Histogram: 1 0 0 0 0 0 0 0 0 0
Nghost:    6479 ave 6479 max 6479 min
Histogram: 1 0 0 0 0 0 0 0 0 0
Neighs:    180303 ave 180303 max 180303 min
Histogram: 1 0 0 0 0 0 0 0 0 0

Total # of neighbors = 180303
Ave neighs/atom = 376.415
Neighbor list builds = 0
Dangerous builds = 0
