LAMMPS (28 Jun 2014)
Running on 20 partitions of processors
Step MaxReplicaForce MaxAtomForce GradV0 GradV1 GradVc EBF EBR RDT RD1 PE1 RD2 PE2 ... RDN PEN
0    175.81986    100.51318    92.768193    92.735058    176.01771    46.669978    46.690457    4.9595791            0   -14735.466  0.052631579   -14735.801   0.10526316   -14734.299   0.15789474   -14731.021   0.21052632    -14726.24   0.26315789   -14720.628   0.31578947   -14715.072   0.36842105    -14710.08   0.42105263   -14705.449   0.47368421   -14700.568   0.52631579   -14695.075   0.57894737   -14689.998   0.63157895   -14688.796   0.68421053   -14694.931   0.73684211   -14706.914   0.78947368   -14719.357   0.84210526   -14728.483   0.89473684   -14733.679   0.94736842   -14735.749            1   -14735.487 
100     3.020872    1.1212248      1.70291    1.6975484    1.2785497    8.2404179    8.2407872    8.3816042            0   -14820.967  0.041120132   -14820.813  0.082556532   -14820.199   0.12544128   -14819.284   0.17051754   -14818.198   0.21863804   -14816.769   0.27224517   -14814.853   0.33305517   -14813.451   0.39790917   -14813.068   0.46638676   -14813.288   0.53696957    -14813.11   0.60373776   -14812.726    0.6668334   -14813.125   0.72276813   -14814.095   0.77266966   -14815.448    0.8219272   -14817.145   0.87078858   -14818.934   0.91659608   -14820.208   0.95864359   -14820.825            1   -14820.967 
200   0.44845734    0.2029654  0.052944438  0.052922379   0.58349373    8.1289637    8.1292745    8.4089223            0   -14820.991  0.047070219   -14820.847  0.094484366   -14820.119   0.14284512   -14819.026   0.19259194   -14817.594   0.24408379   -14815.754   0.29811872    -14814.18   0.35447286   -14813.315   0.41292176   -14813.192   0.47303645   -14813.353   0.53382356   -14813.232    0.5938408   -14812.862    0.6521698   -14812.938   0.70869506   -14813.727   0.76270819   -14814.983   0.81376584   -14816.652   0.86254472    -14818.46   0.90968681   -14819.968   0.95513411   -14820.819            1   -14820.992 
300    3.2987742   0.27816099  0.015706244  0.015724868   0.49688634    8.1528062    8.1531087     8.539369            0   -14820.993  0.051990955   -14820.824   0.10392119   -14819.957   0.15597331     -14818.7   0.20829469   -14817.023    0.2609738   -14815.144   0.31404999   -14813.839    0.3675146   -14813.216   0.42127324   -14813.235   0.47523839    -14813.36   0.52929824   -14813.264   0.58322891   -14812.939   0.63685246    -14812.84   0.69002453   -14813.395    0.7426343   -14814.465   0.79472907   -14815.994   0.84634822   -14817.878   0.89797244   -14819.626   0.94898225   -14820.766            1   -14820.993 
400  0.040135887   0.02041209 0.0095708205 0.0095684803   0.42519242    8.1623237    8.1626199    8.5644045            0   -14820.993   0.05263261   -14820.828   0.10521844   -14819.948   0.15781103   -14818.669   0.21046476    -14816.96   0.26323091   -14815.082   0.31613622   -14813.805   0.36917947   -14813.209   0.42233697    -14813.24   0.47557921    -14813.36   0.52883522   -14813.269   0.58198226   -14812.951   0.63494233   -14812.831   0.68766935   -14813.353   0.74014672     -14814.4    0.7923882    -14815.91   0.84444468   -14817.816   0.89636889   -14819.624    0.9481885   -14820.767            1   -14820.994 
500  0.080448539 0.0069201476 0.0047962686  0.004793317   0.37133332    8.1682036    8.1684524    8.5928128            0   -14820.993  0.052885278   -14820.833   0.10573032   -14819.952   0.15854219   -14818.662   0.21133383   -14816.939   0.26411282    -14815.06   0.31688787   -14813.792   0.36966465   -14813.206   0.42244248   -14813.242   0.47521822    -14813.36   0.52797153   -14813.273   0.58065798   -14812.962   0.63326605   -14812.825   0.68579823   -14813.325   0.73825702   -14814.359   0.79064991   -14815.861   0.84299936   -14817.778   0.89532436    -14819.61   0.94764958   -14820.769            1   -14820.993 
600  0.023167517 0.0036292912 0.0028425152  0.002850725   0.35482466    8.1699811    8.1702791    8.6046323            0   -14820.993  0.052876746   -14820.836    0.1057222   -14819.959    0.1585372   -14818.669   0.21132397   -14816.946   0.26408506   -14815.064   0.31682295   -14813.794   0.36954117   -14813.207    0.4222433   -14813.242   0.47493126    -14813.36   0.52759506   -14813.275   0.58021317   -14812.965   0.63278209   -14812.823   0.68530599   -14813.318   0.73779054   -14814.349   0.79024474   -14815.852   0.84268027   -14817.773   0.89511043   -14819.611   0.94754676   -14820.772            1   -14820.993 
700  0.010599572  0.002593982 0.0017370132 0.0017399488   0.34484958    8.1710312    8.1712923    8.6119883            0   -14820.993  0.052835935   -14820.839   0.10564993   -14819.965   0.15843926   -14818.676   0.21120448   -14816.955   0.26394486    -14815.07    0.3166609   -14813.797   0.36935471   -14813.208   0.42202972   -14813.242   0.47468831    -14813.36    0.5273255   -14813.276   0.57992898   -14812.968   0.63249808   -14812.822   0.68503702   -14813.313    0.7375508   -14814.344   0.79004601   -14815.848   0.84253095   -14817.772   0.89501325   -14819.613   0.94750092   -14820.773            1   -14820.993 
800 0.0034716327  0.001715853 0.00086477725 0.00086610677   0.33578985    8.1719209      8.17216    8.6179921            0   -14820.993  0.052778806   -14820.841    0.1055446    -14819.97   0.15829452   -14818.684   0.21102753   -14816.965    0.2637421   -14815.078   0.31643763   -14813.802    0.3691149   -14813.209   0.42177603   -14813.241   0.47442256    -14813.36   0.52705243   -14813.278   0.57965922    -14812.97     0.632243   -14812.821   0.68480678   -14813.309   0.73735386    -14814.34   0.78988855   -14815.844   0.84241598   -14817.771   0.89494087   -14819.615   0.94746761   -14820.775            1   -14820.993 
900  0.012556495  0.001178201 0.00040624986 0.00041986045   0.32871769    8.1726289    8.1728491    8.6216199            0   -14820.993  0.052728661   -14820.842   0.10545044   -14819.974   0.15816306    -14818.69   0.21086538   -14816.973   0.26355595   -14815.085   0.31623388   -14813.805   0.36889915    -14813.21    0.4215528    -14813.24   0.47419548    -14813.36   0.52682663   -14813.279   0.57944233   -14812.972   0.63204249    -14812.82   0.68462913   -14813.307    0.7372041   -14814.337   0.78976978   -14815.841   0.84232944    -14817.77   0.89488614   -14819.615   0.94744184   -14820.776            1   -14820.993 
1000 0.0049729234 0.00085178453 0.00021962043 0.00028282177   0.32495049    8.1729631    8.1732265    8.6230955            0   -14820.993  0.052703079   -14820.843   0.10540162   -14819.976   0.15809402   -14818.692    0.2107793   -14816.977    0.2634563   -14815.089   0.31612412   -14813.807   0.36878258    -14813.21   0.42143226    -14813.24   0.47407355    -14813.36   0.52670561   -14813.279   0.57932622   -14812.973   0.63193524    -14812.82   0.68453376   -14813.305   0.73712307   -14814.335    0.7897049   -14815.839   0.84228143   -14817.768    0.8948548   -14819.615   0.94742712   -14820.776            1   -14820.993 
Climbing replica = 13
Step MaxReplicaForce MaxAtomForce GradV0 GradV1 GradVc EBF EBR RDT RD1 PE1 RD2 PE2 ... RDN PEN
1000   0.32495049   0.25053478 0.00021962043 0.00028282177   0.32495049    8.1729631    8.1732265    8.6230955            0   -14820.993  0.052703079   -14820.843   0.10540162   -14819.976   0.15809402   -14818.692    0.2107793   -14816.977    0.2634563   -14815.089   0.31612412   -14813.807   0.36878258    -14813.21   0.42143226    -14813.24   0.47407355    -14813.36   0.52670561   -14813.279   0.57932622   -14812.973   0.63193524    -14812.82   0.68453376   -14813.305   0.73712307   -14814.335    0.7897049   -14815.839   0.84228143   -14817.768    0.8948548   -14819.615   0.94742712   -14820.776            1   -14820.993 
1100  0.069186694  0.027694102 0.00011495325 0.00011600469  0.009799786    8.1880068    8.1882054    8.6218748            0   -14820.993  0.052694986   -14820.843   0.10537779   -14819.978   0.15801918   -14818.696   0.21055562   -14816.989   0.26287632   -14815.113   0.31486711   -14813.836    0.3665034   -14813.223     0.417833   -14813.225   0.46891274   -14813.358   0.51980794   -14813.303   0.57062909   -14813.038   0.62142304   -14812.805   0.67600334    -14813.17    0.7305246   -14814.159   0.78492486   -14815.652   0.83908358   -14817.619   0.89298946   -14819.537   0.94662371   -14820.759            1   -14820.993 
1200  0.027955465 0.0067921452 6.6606498e-05 6.7439152e-05 0.0015713095    8.1879332    8.1881768    8.6364121            0   -14820.993  0.052147076   -14820.849    0.1042655   -14820.003   0.15633459   -14818.742   0.20833841   -14817.067   0.26026101    -14815.19   0.31209337    -14813.88   0.36383623   -14813.236   0.41550248   -14813.218     0.467104   -14813.357   0.51863459   -14813.307   0.57011016   -14813.042   0.62155336   -14812.805   0.67560589   -14813.167    0.7296604   -14814.144   0.78371674   -14815.619   0.83777704   -14817.577   0.89184563   -14819.509   0.94591677   -14820.753            1   -14820.993 
1300  0.010792974 0.0033173567 3.753066e-05 3.7346153e-05 0.00084593182    8.1878766    8.1881212    8.6427145            0   -14820.993  0.051998613   -14820.852   0.10397354   -14820.012   0.15591642   -14818.756   0.20782294    -14817.09   0.25968737   -14815.211   0.31150753   -14813.892   0.36328662   -14813.239   0.41503181   -14813.217   0.46674861   -14813.356   0.51843132   -14813.308   0.57008788   -14813.043    0.6217291   -14812.805   0.67575867   -14813.167   0.72978949   -14814.145    0.7838231    -14815.62   0.83786055   -14817.579   0.89190163   -14819.511   0.94594904   -14820.754            1   -14820.993 
1400 0.0060136329 0.0017591063 5.2191655e-05 5.3280605e-05 0.00044520719    8.1878529    8.1881427    8.6473356            0   -14820.993   0.05192647   -14820.854   0.10383739   -14820.018   0.15572903   -14818.766   0.20759998   -14817.103    0.2594479   -14815.222    0.3112725   -14813.898   0.36307642    -14813.24   0.41486383   -14813.216   0.46663732   -14813.356    0.5183943   -14813.309   0.57013851   -14813.044   0.62187536   -14812.805   0.67588829   -14813.167   0.72990189   -14814.145   0.78391691   -14815.622   0.83793403    -14817.58   0.89195313   -14819.512   0.94597564   -14820.755            1   -14820.993 
1500 0.0066714927 0.00094083889 2.7618791e-05 2.7319066e-05 0.00022318277    8.1878595    8.1881389    8.6504507            0   -14820.993  0.051890473   -14820.855   0.10377066   -14820.022   0.15563898   -14818.772   0.20749517   -14817.111   0.25933849   -14815.229   0.31116917   -14813.901   0.36298892   -14813.241    0.4148003   -14813.215   0.46660507   -14813.356   0.51840146   -14813.309    0.5701916   -14813.045   0.62197818   -14812.805   0.67597889   -14813.168   0.72997994   -14814.146   0.78398172   -14815.622   0.83798444   -14817.581   0.89198799   -14819.513   0.94599379   -14820.755            1   -14820.993 
1600 0.0029098308 0.00054508124 2.1108736e-05 2.1251745e-05 0.00011109547     8.187812    8.1881292     8.652462            0   -14820.993  0.051873912   -14820.856   0.10374055   -14820.025   0.15559941   -14818.776   0.20745079   -14817.117    0.2592945   -14815.233   0.31113083   -14813.903   0.36296088   -14813.242   0.41478624   -14813.215   0.46660786   -14813.356    0.5184246   -14813.309   0.57023803   -14813.045   0.62204954   -14812.805   0.67604138   -14813.168   0.73003333   -14814.146    0.7840256   -14815.622   0.83801838   -14817.582   0.89201158   -14819.514   0.94600547   -14820.756            1   -14820.993 
1700   0.01440175 0.0012383178 6.6568988e-05 6.4865648e-05 8.6527403e-05    8.1878653    8.1881242    8.6539616            0   -14820.993  0.051869217   -14820.857   0.10373243   -14820.028   0.15558943   -14818.779   0.20744089    -14817.12   0.25928685   -14815.237    0.3111278   -14813.905   0.36296434   -14813.242   0.41479781   -14813.215    0.4666288   -14813.356   0.51845633   -14813.309   0.57028176   -14813.045   0.62210619   -14812.805   0.67609054   -14813.168   0.73007494   -14814.146    0.7840595   -14815.623   0.83804427   -14817.582   0.89202899   -14819.514   0.94601474   -14820.756            1   -14820.993 
1800 0.0060252675 0.00051455196 2.8201631e-05 2.9758077e-05 3.9300711e-05    8.1878487    8.1881338    8.6549347            0   -14820.993   0.05186986   -14820.858     0.103734   -14820.029   0.15559252    -14818.78   0.20744593   -14817.123   0.25929458   -14815.238   0.31113878   -14813.906   0.36297921   -14813.242   0.41481682   -14813.215   0.46665202   -14813.356   0.51848434   -14813.309    0.5703153   -14813.045   0.62214558   -14812.805   0.67612455   -14813.168   0.73010355   -14814.146   0.78408263   -14815.623   0.83806174   -14817.582   0.89204128   -14819.514   0.94602037   -14820.756            1   -14820.993 
1900  0.006385683 0.00054845527 3.1975802e-05 3.239111e-05  3.54324e-05    8.1878769    8.1880833    8.6557216            0   -14820.993  0.051872369   -14820.858   0.10373907   -14820.031   0.15560006   -14818.782   0.20745607   -14817.125   0.25930724    -14815.24   0.31115412   -14813.906    0.3629974   -14813.243   0.41483787   -14813.215   0.46667592   -14813.356   0.51851109    -14813.31   0.57034503   -14813.045    0.6221783   -14812.805   0.67615269   -14813.168   0.73012709   -14814.146   0.78410152   -14815.623   0.83807609   -14817.582   0.89205048   -14819.514   0.94602537   -14820.756            1   -14820.993 
2000 0.0017205902 0.00029574146 1.5899344e-05 1.6099194e-05 1.7322618e-05    8.1878822    8.1881055    8.6565497            0   -14820.993  0.051876178   -14820.859   0.10374631   -14820.032   0.15561066   -14818.784   0.20746974   -14817.127   0.25932396   -14815.242   0.31117375   -14813.907    0.3630198   -14813.243   0.41486294   -14813.215   0.46670358   -14813.356   0.51854122    -14813.31   0.57037772   -14813.045   0.62221361   -14812.805   0.67618302   -14813.168   0.73015245   -14814.146   0.78412189   -14815.623   0.83809137   -14817.582   0.89206092   -14819.514    0.9460304   -14820.756            1   -14820.993 
