

variable      mytemp equal  1400

# -------------------- FORCE FIELDS ----------------------
pair_style buck/coul/long 10.0 10.0

read_data	NPT_relaxed_1400.data
  orthogonal box = (0.193471 0.223403 0.204127) to (77.1075 89.0368 81.3544)
  1 by 5 by 3 MPI processor grid
  reading atoms ...
  58365 atoms
  reading velocities ...
  58365 velocities

pair_coeff    * * 1e-30 1e-30 0.0
pair_coeff    1 2 1204.18 0.3165   0.0
pair_coeff    1 1 9547.96 0.21916  32.0

kspace_style    pppm 0.0001

## Define group
group oxygen type 1
35019 atoms in group oxygen
group chromium type 2
23346 atoms in group chromium


## --------------------- NVT  --------------------
compute allmsd all displace/atom

#dump          2 all custom 25000  dump/dump id type xu yu zu c_allmsd[1] c_allmsd[2] c_allmsd[3] c_allmsd[4]
#dump          1 all xyz 25000 xyz/all.xyz
#dump_modify   1 element O Cr



compute   Omsd oxygen msd com yes
compute   Crmsd chromium msd com yes
variable  OMSDX equal "c_Omsd[1]"
variable  OMSDY equal "c_Omsd[2]"
variable  OMSDZ equal "c_Omsd[3]"
variable  OMSDAll equal "c_Omsd[4]"

variable  CrMSDX equal "c_Crmsd[1]"
variable  CrMSDY equal "c_Crmsd[2]"
variable  CrMSDZ equal "c_Crmsd[3]"
variable  CrMSDAll equal "c_Crmsd[4]"

thermo          1000
thermo_style    custom step pe ke press lx ly lz temp c_Omsd[1]  c_Omsd[2]  c_Omsd[3]  c_Omsd[4]  c_Crmsd[1]  c_Crmsd[2]  c_Crmsd[3]  c_Crmsd[4]


fix          1 all print 100 "${OMSDX}   ${OMSDY}   ${OMSDZ}  ${OMSDAll}  ${CrMSDX}   ${CrMSDY}   ${CrMSDZ}  ${CrMSDAll}" file MSD1400.data screen no
fix          3 all nvt temp ${mytemp} ${mytemp} 0.01
fix          3 all nvt temp 1400 ${mytemp} 0.01
fix          3 all nvt temp 1400 1400 0.01

run      1000000
PPPM initialization ...
  G vector (1/distance) = 0.309148
  grid = 72 80 75
  stencil order = 5
  estimated absolute RMS force accuracy = 0.00177248
  estimated relative force accuracy = 0.000123092
  using double precision FFTs
  3d grid and FFT values/proc = 58144 28800
Memory usage per processor = 12.6319 Mbytes
Step PotEng KinEng Press Lx Ly Lz Temp Omsd[1] Omsd[2] Omsd[3] Omsd[4] Crmsd[1] Crmsd[2] Crmsd[3] Crmsd[4] 
       0   -1798257.5    10461.772    221.47485    76.914057    88.813394    81.150246    1386.7417            0 2.1185507e-29            0 2.1185507e-29            0            0            0            0 
    1000     -1798195    10588.118    309.41511    76.914057    88.813394    81.150246    1403.4892  0.025975128  0.027090007   0.03374602  0.086811155  0.020701268  0.021570449  0.025807155  0.068078873 
    2000   -1798232.2    10562.598     147.7631    76.914057    88.813394    81.150246    1400.1065   0.02631814  0.026891533  0.033873072  0.087082745  0.020916351    0.0214625  0.025962434  0.068341285 
    3000   -1798283.1     10543.99    -339.4881    76.914057    88.813394    81.150246    1397.6399  0.026370355  0.026806401  0.034397027  0.087573783   0.02047054   0.02108984  0.026049801  0.067610181 
    4000   -1798209.8    10585.342    287.31654    76.914057    88.813394    81.150246    1403.1212   0.02624137  0.027466375  0.035067083  0.088774828  0.020269113  0.021307798  0.026484363  0.068061274 
    5000   -1798214.4    10523.275   -175.97486    76.914057    88.813394    81.150246    1394.8941  0.026646474   0.02755398  0.034673014  0.088873468  0.020771794  0.021122699  0.026198292  0.068092785 
    6000   -1798227.2    10515.397    179.01629    76.914057    88.813394    81.150246    1393.8498   0.02714484  0.026823832  0.035033841  0.089002514  0.020695604  0.020394441  0.025927367  0.067017413 
    7000   -1798252.1    10564.247     614.1224    76.914057    88.813394    81.150246    1400.3251  0.027537457  0.026499878  0.035114924  0.089152259  0.021011378  0.020093041  0.025721183  0.066825602 
    8000   -1798250.7    10579.917    190.91022    76.914057    88.813394    81.150246    1402.4021  0.028279994  0.028531693  0.036231785  0.093043472  0.021492822  0.021514802  0.026036812  0.069044436 
    9000     -1798216    10535.824    122.60741    76.914057    88.813394    81.150246    1396.5575  0.027442516  0.027627403  0.036249701   0.09131962  0.020550842  0.020464897  0.025896065  0.066911804 
   10000   -1798241.6    10527.065    85.725223    76.914057    88.813394    81.150246    1395.3965    0.0272762  0.027482054  0.036529012  0.091287266  0.020017868  0.020536224  0.026777403  0.067331495 
   11000   -1798225.8    10575.335    33.069663    76.914057    88.813394    81.150246    1401.7948  0.028394682  0.028345974  0.036923924  0.093664579  0.021172694  0.020799676  0.026381435  0.068353805 
   12000   -1798208.5     10502.21   -32.894278    76.914057    88.813394    81.150246    1392.1019  0.027501368  0.028990953  0.036285135  0.092777456   0.02048747   0.02045365  0.025860557  0.066801677 
   13000     -1798226    10563.622    637.19198    76.914057    88.813394    81.150246    1400.2422  0.028077731  0.028829013   0.03736152  0.094268264  0.020608196  0.021159459  0.026392127  0.068159782 
   14000   -1798191.4    10609.819    410.31744    76.914057    88.813394    81.150246    1406.3658   0.02838197  0.028939418  0.037461374  0.094782762  0.020795562  0.020684177  0.026191995  0.067671733 
   15000   -1798284.2    10503.769   -400.64651    76.914057    88.813394    81.150246    1392.3085   0.02862672  0.029630445    0.0366783  0.094935465  0.020952182  0.021222159  0.025902902  0.068077243 
   16000   -1798260.2    10611.645    134.66249    76.914057    88.813394    81.150246    1406.6079  0.028281272  0.028888299   0.03777648   0.09494605  0.020578945  0.020220523  0.027416457  0.068215926 
   17000   -1798214.3    10597.739    169.87836    76.914057    88.813394    81.150246    1404.7646  0.028269413  0.028648242  0.038528604  0.095446259  0.020525913  0.020430407  0.027795607  0.068751927 
   18000     -1798254    10555.291    58.989674    76.914057    88.813394    81.150246    1399.1379  0.028805376  0.029810271  0.036895558  0.095511205  0.021343394  0.021127837  0.026258482  0.068729714 
   19000   -1798215.3    10584.618    814.23186    76.914057    88.813394    81.150246    1403.0253  0.027864028  0.029406611  0.036902117  0.094172756  0.020120803  0.021271697   0.02644278  0.067835279 
   20000   -1798226.7    10552.961    351.37713    76.914057    88.813394    81.150246    1398.8291  0.028981672  0.029858306  0.037456825  0.096296803  0.021134068   0.02109027     0.026162  0.068386339 
   21000   -1798230.6    10608.678    127.94637    76.914057    88.813394    81.150246    1406.2145   0.02923342   0.02977976  0.038333344  0.097346524  0.020806161  0.020963107  0.027015519  0.068784787 
   22000   -1798244.6     10578.44   -178.79173    76.914057    88.813394    81.150246    1402.2063  0.028903554  0.030205553  0.038480663  0.097589771  0.020470446  0.020935802  0.026991174  0.068397422 
   23000   -1798221.8    10589.456    672.35344    76.914057    88.813394    81.150246    1403.6666  0.029474584  0.030817136  0.038632485  0.098924205   0.02092329  0.020700715   0.02702306  0.068647065 
   24000     -1798229    10549.901   -37.832931    76.914057    88.813394    81.150246    1398.4234  0.029973916  0.031251415  0.039023983   0.10024931  0.020967008  0.020718339  0.027305538  0.068990885 
   25000   -1798199.7    10529.912    297.74528    76.914057    88.813394    81.150246    1395.7738  0.030412635   0.03073604  0.038650036  0.099798711  0.021478864  0.021176654  0.027195854  0.069851372 
   26000   -1798207.3    10594.058    690.25157    76.914057    88.813394    81.150246    1404.2766  0.029570207  0.030961436  0.038264809  0.098796451  0.020831594  0.021207161  0.026988239  0.069026995 
   27000   -1798336.9    10544.941   -208.74923    76.914057    88.813394    81.150246    1397.7659  0.030549537  0.031362953  0.038967455   0.10087995  0.021579783  0.020614622  0.027073128  0.069267533 
   28000   -1798234.8    10633.516     178.7834    76.914057    88.813394    81.150246    1409.5069  0.030707461  0.031370139  0.039331874   0.10140947  0.020943195  0.020872077  0.027170353  0.068985624 
   29000   -1798293.9    10535.658   -53.336914    76.914057    88.813394    81.150246    1396.5355   0.03080075  0.031213041  0.039494169   0.10150796  0.021086743  0.020395905  0.027122835  0.068605483 
   30000   -1798241.2    10564.999    110.04449    76.914057    88.813394    81.150246    1400.4247    0.0313912  0.031859414  0.040518156   0.10376877  0.021331384  0.020939738  0.027756057  0.070027179 
   31000   -1798272.9    10622.703    206.97872    76.914057    88.813394    81.150246    1408.0736  0.030923433  0.031842936  0.039557064   0.10232343  0.020756554  0.020226833  0.026991952  0.067975338 
   32000   -1798250.1    10468.819   -251.79455    76.914057    88.813394    81.150246    1387.6757  0.031128243  0.031618203  0.040783787   0.10353023  0.020997937  0.020579525  0.027380787  0.068958249 
   33000     -1798251    10542.969    129.00042    76.914057    88.813394    81.150246    1397.5046   0.03110445  0.032514803  0.041094094   0.10471335   0.02083381  0.020876149  0.027557743  0.069267702 
   34000   -1798248.5    10598.343    471.77563    76.914057    88.813394    81.150246    1404.8446  0.032063735  0.032940986  0.041451588   0.10645631  0.021035862  0.021138485  0.026722791  0.068897138 
   35000   -1798211.7    10559.556    873.18212    76.914057    88.813394    81.150246    1399.7032  0.032086134  0.032850096  0.041589931   0.10652616  0.020920436  0.020939926  0.027523306  0.069383667 
   36000   -1798253.4    10547.695   -314.08965    76.914057    88.813394    81.150246     1398.131  0.032755765  0.032583956  0.040953529   0.10629325  0.020665398  0.020210581  0.027454203  0.068330181 
   37000   -1798206.3    10574.888     170.9277    76.914057    88.813394    81.150246    1401.7355  0.033330726  0.032868508  0.042140079   0.10833931  0.021888357   0.02085642  0.027611832  0.070356608 
   38000   -1798215.2    10610.141    414.73769    76.914057    88.813394    81.150246    1406.4084  0.032653707  0.033715302   0.04355745   0.10992646  0.020354379  0.021208331  0.028216314  0.069779024 
   39000   -1798207.2    10581.476   -11.848133    76.914057    88.813394    81.150246    1402.6088  0.032464571  0.033791831  0.043312655   0.10956906  0.020639928  0.020872433  0.028076563  0.069588925 
   40000   -1798222.2    10551.661    204.20226    76.914057    88.813394    81.150246    1398.6567  0.033664279  0.033115384  0.042897961   0.10967762  0.021311224  0.020825792  0.027712412  0.069849428 
   41000     -1798237    10597.423    117.49509    76.914057    88.813394    81.150246    1404.7226  0.033653472  0.033760669  0.043143503   0.11055764  0.020900505  0.021127846  0.027865786  0.069894138 
   42000   -1798288.5    10554.336    42.146238    76.914057    88.813394    81.150246    1399.0113  0.033066243  0.033966545  0.043376983   0.11040977  0.020302439  0.021142718  0.027818629  0.069263786 
   43000   -1798251.8    10546.278    177.19737    76.914057    88.813394    81.150246    1397.9432  0.034093265  0.032703798  0.043268187   0.11006525  0.020884625  0.019915683  0.027980509  0.068780816 
   44000   -1798156.7    10532.214    312.06272    76.914057    88.813394    81.150246    1396.0789  0.033787697   0.03397803  0.044347318   0.11211304  0.020917716  0.020599533  0.027883535  0.069400785 
   45000   -1798216.9     10521.41     85.44376    76.914057    88.813394    81.150246    1394.6468  0.033711999  0.033814799  0.044336344   0.11186314  0.021078054  0.020646431  0.028277684   0.07000217 
   46000   -1798226.8    10542.177    455.55798    76.914057    88.813394    81.150246    1397.3996  0.033544521  0.034326896  0.043534033   0.11140545  0.020389589  0.021144604  0.027809714  0.069343907 
   47000   -1798230.7    10572.321    205.10595    76.914057    88.813394    81.150246    1401.3953  0.033338368  0.033400634  0.043859373   0.11059838   0.02062183  0.020213716  0.028237329  0.069072875 
   48000   -1798219.1    10597.617    209.30268    76.914057    88.813394    81.150246    1404.7484   0.03428242  0.035047815  0.044775431   0.11410567  0.021158066  0.021134926  0.028496614  0.070789606 
   49000   -1798208.4    10622.553    516.52952    76.914057    88.813394    81.150246    1408.0537  0.033643305  0.034436017  0.044859653   0.11293897  0.020914315  0.021215962  0.028679406  0.070809683 
   50000   -1798210.5    10542.813    660.90346    76.914057    88.813394    81.150246    1397.4839    0.0339631  0.033669809  0.044197229   0.11183014  0.020578081  0.020234357  0.027883448  0.068695886 
   51000   -1798223.3    10562.296      414.464    76.914057    88.813394    81.150246    1400.0665  0.033889515  0.034162123  0.044661565    0.1127132   0.02089277  0.020353304  0.028069668  0.069315743 
   52000   -1798257.2    10621.821    607.91256    76.914057    88.813394    81.150246    1407.9567  0.033652078  0.035196701   0.04468966   0.11353844  0.020439173  0.020565687  0.028179269  0.069184129 
   53000   -1798320.6    10538.283    -437.2075    76.914057    88.813394    81.150246    1396.8834  0.033891963  0.034049248   0.04396738   0.11190859  0.020443869  0.020199703  0.027325335  0.067968907 
   54000     -1798240    10551.512    354.41628    76.914057    88.813394    81.150246     1398.637  0.034287148  0.034925827   0.04555854   0.11477152  0.020745792  0.020421492  0.028760907  0.069928191 
   55000   -1798232.6    10574.276    342.73095    76.914057    88.813394    81.150246    1401.6545    0.0349215  0.034927664  0.045367313   0.11521648  0.020284447  0.020414707  0.027036289  0.067735443 
   56000   -1798166.3    10546.605    260.20623    76.914057    88.813394    81.150246    1397.9866   0.03485069  0.035455102   0.04622201    0.1165278  0.021068477  0.020683272  0.028365508  0.070117256 
   57000   -1798234.9     10529.01     201.3967    76.914057    88.813394    81.150246    1395.6543  0.035778994   0.03486432  0.044758658   0.11540197  0.020860592  0.020371319  0.027943917  0.069175828 
   58000   -1798247.9    10532.902   -324.04381    76.914057    88.813394    81.150246    1396.1702  0.036263225  0.035185377  0.045229451   0.11667805  0.020943227  0.020314604  0.027085198  0.068343028 
   59000     -1798283    10505.611   -562.12509    76.914057    88.813394    81.150246    1392.5527  0.036121838  0.035338433  0.045589987   0.11705026  0.020865324   0.02033186  0.027410757  0.068607941 
   60000   -1798237.7    10549.663    129.64537    76.914057    88.813394    81.150246    1398.3919  0.036202825  0.035462406  0.046236507   0.11790174  0.021200636   0.02053159  0.027531744   0.06926397 
   61000   -1798218.8    10614.397    439.76667    76.914057    88.813394    81.150246    1406.9726  0.036542994  0.035842944  0.047605971   0.11999191  0.020682041  0.020773614  0.027777066  0.069232721 
   62000   -1798252.9    10526.924    262.18704    76.914057    88.813394    81.150246    1395.3777  0.036640608  0.034925088  0.048407846   0.11997354  0.021008377  0.020240137  0.027739571  0.068988084 
   63000   -1798169.3    10557.693    787.50398    76.914057    88.813394    81.150246    1399.4564  0.036748043  0.036144605  0.049260454    0.1221531   0.02070691  0.020448447  0.028744957  0.069900314 
   64000   -1798216.5    10521.478    294.78573    76.914057    88.813394    81.150246    1394.6559   0.03757862  0.035255141  0.049258977   0.12209274  0.021031877  0.020332285  0.027936641  0.069300803 
   65000   -1798257.3    10533.059    16.758025    76.914057    88.813394    81.150246     1396.191  0.037250894  0.035983689  0.049641327   0.12287591  0.020735119  0.020573476  0.028339397  0.069647992 
   66000   -1798261.7    10552.638    -222.4526    76.914057    88.813394    81.150246    1398.7862  0.037060908  0.036436964  0.049845836   0.12334371  0.020428111  0.020315636  0.027782095  0.068525843 
   67000   -1798244.2    10600.322    854.41102    76.914057    88.813394    81.150246    1405.1069  0.036873367   0.03614298  0.049379074   0.12239542  0.020596263  0.020576984  0.028028296  0.069201543 
   68000   -1798223.3    10547.956    303.35961    76.914057    88.813394    81.150246    1398.1656   0.03773023  0.037472924   0.05069831   0.12590146  0.020726269  0.021116068  0.029467847  0.071310184 
   69000   -1798194.3    10531.119    335.98409    76.914057    88.813394    81.150246    1395.9339  0.037757881  0.036513043  0.049802484   0.12407341  0.020948002  0.020241173  0.028862831  0.070052006 
   70000   -1798149.6    10592.313    489.66607    76.914057    88.813394    81.150246    1404.0453  0.037769856  0.036897722  0.050447231   0.12511481  0.020801047  0.020722945  0.030521046  0.072045038 
   71000   -1798203.9    10531.651    271.71917    76.914057    88.813394    81.150246    1396.0044  0.037843466  0.037748359  0.050890432   0.12648226  0.020226384  0.020754603    0.0302785  0.071259486 
   72000   -1798218.5    10551.816    206.10818    76.914057    88.813394    81.150246    1398.6773  0.037503705  0.036901064  0.049076762   0.12348153   0.02074018  0.020600476  0.029644153  0.070984809 
   73000   -1798266.9     10546.47   -15.314306    76.914057    88.813394    81.150246    1397.9686  0.037657356  0.036989221  0.049459473   0.12410605  0.020615271  0.020502265  0.028762886  0.069880421 
   74000   -1798201.2    10516.542    243.17115    76.914057    88.813394    81.150246    1394.0016   0.03849117   0.03797917  0.049844488   0.12631483  0.021252067  0.020982662  0.028769789  0.071004517 
   75000   -1798237.9     10535.45   -114.69105    76.914057    88.813394    81.150246    1396.5079  0.037768481  0.037511929  0.051452538   0.12673295  0.020427748  0.020416952  0.029634714  0.070479414 
   76000   -1798279.8    10538.254    5.9589034    76.914057    88.813394    81.150246    1396.8796  0.037987024  0.037526243  0.050592479   0.12610575  0.021199527  0.020736281  0.029579313  0.071515121 
   77000   -1798205.4    10545.411    347.55814    76.914057    88.813394    81.150246    1397.8282    0.0374513  0.037778132  0.050848642   0.12607807  0.020304015  0.020717381  0.029836676  0.070858072 
   78000   -1798231.5    10570.489    341.21552    76.914057    88.813394    81.150246    1401.1524  0.037440258  0.037668457  0.050658855   0.12576757  0.020959122  0.020417971  0.028651907     0.070029 
   79000   -1798138.1    10534.475    741.77138    76.914057    88.813394    81.150246    1396.3786  0.038230172  0.037394746  0.051547584    0.1271725  0.021386696  0.020532698  0.028510409  0.070429803 
   80000     -1798220      10537.7    141.68333    76.914057    88.813394    81.150246    1396.8061  0.038671588  0.037339332  0.050961983    0.1269729  0.020874605   0.02055125  0.029062429  0.070488285 
   81000   -1798207.9    10539.637    365.76266    76.914057    88.813394    81.150246    1397.0629  0.038513298  0.038493825  0.050834053   0.12784118  0.021071624  0.021194821  0.028952302  0.071218746 
   82000   -1798224.6    10577.616   -79.945949    76.914057    88.813394    81.150246    1402.0971   0.03791474  0.037710411  0.052078908   0.12770406  0.020442461  0.020319649  0.029037912  0.069800022 
   83000   -1798276.9    10574.002    164.32325    76.914057    88.813394    81.150246    1401.6181  0.038623623  0.037378632  0.051102778   0.12710503  0.020989701  0.020355279  0.028989262  0.070334242 
   84000   -1798231.1    10571.346    314.35672    76.914057    88.813394    81.150246     1401.266  0.038700094  0.037716426  0.050780679    0.1271972  0.021180398  0.020644063  0.028657693  0.070482155 
   85000   -1798169.9    10590.505    532.43218    76.914057    88.813394    81.150246    1403.8057  0.039167169  0.038178624  0.051229748   0.12857554  0.020907053  0.020788581  0.029627679  0.071323313 
   86000   -1798228.8    10609.901    312.29258    76.914057    88.813394    81.150246    1406.3766  0.039224117  0.038266322  0.051519931   0.12901037  0.021026193  0.020883501   0.02843526  0.070344953 
   87000   -1798302.1    10563.809    53.592031    76.914057    88.813394    81.150246    1400.2671  0.039279491  0.038545428  0.050954697   0.12877962  0.020586758  0.020659376   0.02847308  0.069719215 
   88000   -1798240.2    10506.765    343.32943    76.914057    88.813394    81.150246    1392.7056   0.03959631  0.038848392  0.052203288   0.13064799  0.020966698  0.020640868   0.02865596  0.070263526 
   89000   -1798210.2    10493.707    471.94155    76.914057    88.813394    81.150246    1390.9747  0.038791823  0.038427348  0.051879594   0.12909877  0.020485821  0.020114977  0.029160444  0.069761243 
   90000   -1798228.9    10596.622    153.37851    76.914057    88.813394    81.150246    1404.6165  0.039521491  0.038730357  0.051716542   0.12996839  0.020964628  0.020582422  0.028500229  0.070047279 
   91000   -1798212.7    10565.107   -44.931803    76.914057    88.813394    81.150246     1400.439  0.039700409  0.039416341  0.052890766   0.13200752  0.021006115  0.021450655  0.029803679  0.072260448 
   92000   -1798250.3    10540.103   -24.708054    76.914057    88.813394    81.150246    1397.1246  0.039939936   0.03858837  0.052151983   0.13068029  0.021023377  0.020400511  0.028581067  0.070004955 
   93000   -1798225.6    10566.527    -193.5912    76.914057    88.813394    81.150246    1400.6272  0.039193887  0.038940512  0.052428255   0.13056266    0.0209977  0.020567647  0.029632459  0.071197806 
   94000   -1798214.2    10588.014    646.29965    76.914057    88.813394    81.150246    1403.4755  0.039704501  0.038707347  0.052658001   0.13106985  0.021009825  0.020506505  0.029395443  0.070911773 
   95000   -1798285.4    10561.522   -158.02705    76.914057    88.813394    81.150246    1399.9638  0.039782687  0.039616499   0.05187524   0.13127443   0.02093032   0.02054962  0.029077406  0.070557345 
   96000   -1798248.9    10603.343    221.42798    76.914057    88.813394    81.150246    1405.5074  0.039904201  0.039176284  0.051989313    0.1310698  0.021254852  0.020726074  0.029593197  0.071574124 
   97000   -1798165.4    10543.023   -121.33124    76.914057    88.813394    81.150246    1397.5117  0.040288034  0.039170303  0.052637265    0.1320956  0.021175412  0.020710696  0.029201841  0.071087948 
   98000   -1798201.9    10572.102    297.72276    76.914057    88.813394    81.150246    1401.3663  0.040407848  0.039610249  0.053191583   0.13320968  0.020964611  0.020229494  0.030332284  0.071526389 
   99000   -1798244.9    10601.545    522.12639    76.914057    88.813394    81.150246     1405.269  0.040109698  0.039519997   0.05243459   0.13206429  0.020588159  0.020263063  0.029101911  0.069953133 
  100000   -1798213.3    10560.799    370.09981    76.914057    88.813394    81.150246     1399.868  0.040576892  0.039386828   0.05241961   0.13238333   0.02036801  0.020365675  0.029447552  0.070181238 
  101000   -1798244.8    10561.304    168.17315    76.914057    88.813394    81.150246     1399.935  0.039977866  0.040152425  0.053269907    0.1334002  0.020643309  0.020599131  0.030158252  0.071400692 
  102000   -1798230.3    10566.931    260.46244    76.914057    88.813394    81.150246    1400.6809  0.041024321  0.040294347  0.053119105   0.13443777  0.020695781  0.020278669  0.028805212  0.069779662 
  103000   -1798186.1    10480.171    441.15919    76.914057    88.813394    81.150246    1389.1805   0.04158526  0.040285158  0.054933914   0.13680433  0.021906285    0.0208191  0.030086535   0.07281192 
  104000   -1798214.2      10607.9    226.97222    76.914057    88.813394    81.150246    1406.1114  0.041436801  0.040556998  0.054754505    0.1367483  0.021019152  0.020085757  0.029753571  0.070858479 
  105000   -1798165.9    10504.834    475.35335    76.914057    88.813394    81.150246    1392.4496  0.040974754  0.041309587  0.055492771   0.13777711  0.020791407  0.021248237  0.029164015  0.071203659 
  106000   -1798188.5    10625.073    751.06092    76.914057    88.813394    81.150246    1408.3878  0.040696341  0.040497337  0.055387576   0.13658125  0.020989725  0.020650905  0.029456666  0.071097295 
  107000   -1798184.8    10523.966    761.31366    76.914057    88.813394    81.150246    1394.9857  0.040949326   0.04141326  0.055328002   0.13769059   0.02044471  0.020493431  0.028898478  0.069836619 
  108000   -1798214.8    10535.402     404.1031    76.914057    88.813394    81.150246    1396.5015  0.041027626  0.041420854  0.054796776   0.13724526  0.021211989  0.020786127  0.029554448  0.071552564 
  109000   -1798289.9    10480.338   -609.61328    76.914057    88.813394    81.150246    1389.2027    0.0406502  0.041397598  0.054903548   0.13695135  0.020495869   0.02077297  0.029139716  0.070408555 
  110000     -1798225    10523.349   -51.779522    76.914057    88.813394    81.150246    1394.9038  0.041349322  0.041430697  0.055417921   0.13819794   0.02068571   0.02001637  0.029212749  0.069914829 
  111000   -1798190.6    10574.079    862.00862    76.914057    88.813394    81.150246    1401.6283  0.042056905  0.042093437  0.055298873   0.13944922  0.021179427  0.020481939  0.029323303  0.070984669 
  112000   -1798256.7    10544.779      134.127    76.914057    88.813394    81.150246    1397.7445  0.041569091  0.042309073  0.055306066   0.13918423  0.021125206  0.020679074  0.029133128  0.070937408 
  113000   -1798216.6    10601.792    439.30251    76.914057    88.813394    81.150246    1405.3017  0.040912271  0.042258582  0.056246024   0.13941688   0.02032992  0.020522825  0.029236656  0.070089402 
  114000   -1798250.8    10522.346   -362.98818    76.914057    88.813394    81.150246    1394.7709  0.041415212  0.041986504   0.05496135   0.13836307  0.020975484  0.020223653  0.029046531  0.070245668 
  115000   -1798246.6    10540.669   -35.244328    76.914057    88.813394    81.150246    1397.1997  0.041849183  0.042288507  0.056031119   0.14016881  0.021161028  0.020403688  0.029623312  0.071188029 
  116000   -1798273.7    10543.647   -289.69747    76.914057    88.813394    81.150246    1397.5944  0.041633482  0.042946985  0.056862241   0.14144271  0.020623273  0.021087593  0.029497695  0.071208561 
  117000   -1798294.7    10558.454    150.51155    76.914057    88.813394    81.150246    1399.5572  0.041772025  0.042390649  0.055778272   0.13994095  0.020926708  0.020604013  0.029218647  0.070749369 
  118000   -1798234.8    10537.211    66.043553    76.914057    88.813394    81.150246    1396.7413  0.042115268  0.041946943   0.05735661   0.14141882  0.021236787  0.020797604   0.02969552  0.071729911 
  119000   -1798229.2    10577.821      581.266    76.914057    88.813394    81.150246    1402.1243  0.042570426  0.042394138   0.05718825   0.14215281  0.021039172  0.020443075  0.029415697  0.070897943 
  120000   -1798188.4    10616.558    436.52264    76.914057    88.813394    81.150246     1407.259  0.042932796  0.042231004  0.056059687   0.14122349  0.021770334  0.020582616   0.03006689  0.072419839 
  121000   -1798234.2    10535.426    -46.31899    76.914057    88.813394    81.150246    1396.5047  0.041939695  0.042990339  0.056383299   0.14131333  0.020884913  0.021114657  0.029566644  0.071566213 
  122000     -1798295    10562.192    52.784272    76.914057    88.813394    81.150246    1400.0526  0.042307095  0.042898478  0.057560096   0.14276567  0.020724254   0.02056223  0.029933479  0.071219964 
  123000   -1798229.1    10571.048    -39.17181    76.914057    88.813394    81.150246    1401.2265  0.042379833  0.043596299  0.055823697   0.14179983  0.020967411  0.020546237  0.029738324  0.071251973 
  124000   -1798287.6    10593.332   -144.14259    76.914057    88.813394    81.150246    1404.1804  0.042497143  0.043092659  0.056467343   0.14205715  0.020783079  0.020478396  0.030382013  0.071643488 
  125000   -1798220.8    10602.453    351.36565    76.914057    88.813394    81.150246    1405.3894  0.043720146  0.044007967  0.057323383    0.1450515  0.021925833  0.020999175  0.030344559  0.073269567 
  126000   -1798234.5    10505.077    -199.9879    76.914057    88.813394    81.150246    1392.4818  0.043920155  0.043254677   0.05655279   0.14372762  0.021112098  0.020685387  0.029729737  0.071527222 
  127000     -1798216    10527.001    404.66934    76.914057    88.813394    81.150246     1395.388  0.044451708  0.044333094  0.057278179   0.14606298  0.021311809   0.02106699    0.0294087  0.071787499 
  128000   -1798258.7     10569.96    459.38728    76.914057    88.813394    81.150246    1401.0823  0.042900126  0.044307359  0.057750814    0.1449583   0.02054991  0.020877815  0.030454612  0.071882337 
  129000   -1798206.5    10591.422    4.5175404    76.914057    88.813394    81.150246    1403.9271  0.043771668  0.044314338  0.057325881   0.14541189  0.021710471  0.020610019  0.030511033  0.072831524 
  130000   -1798246.3    10510.946    147.98955    76.914057    88.813394    81.150246    1393.2598  0.043155741  0.044106845  0.057063229   0.14432581  0.020882882  0.020573166  0.030201173  0.071657221 
  131000   -1798230.8    10553.505     281.9826    76.914057    88.813394    81.150246    1398.9012  0.043400872  0.044935528  0.057778963   0.14611536  0.020854603  0.020834795  0.030215433   0.07190483 
  132000   -1798275.9    10560.704    36.364602    76.914057    88.813394    81.150246    1399.8554  0.044204669   0.04483825  0.057874993   0.14691791  0.021470364  0.020759661  0.030151117  0.072381142 
  133000   -1798205.8    10577.895    91.513611    76.914057    88.813394    81.150246    1402.1342  0.044288778  0.043608581   0.05934006   0.14723742  0.020956089  0.020233071  0.030550713  0.071739873 
  134000     -1798222    10613.598    47.149245    76.914057    88.813394    81.150246    1406.8667  0.044270465  0.044440778  0.059637316   0.14834856  0.020588708  0.020365756  0.030971895  0.071926359 
  135000   -1798190.2    10588.368    471.76834    76.914057    88.813394    81.150246    1403.5224    0.0444763  0.045933069  0.058664123   0.14907349  0.020763572  0.021036001  0.029442149  0.071241722 
  136000   -1798189.1    10570.158    205.42932    76.914057    88.813394    81.150246    1401.1085  0.044826254  0.045433468  0.059271265   0.14953099  0.020948749  0.021024508   0.02966382  0.071637077 
  137000   -1798193.7    10552.086    784.42173    76.914057    88.813394    81.150246     1398.713  0.044178507  0.044965718  0.060160695   0.14930492  0.020792776  0.020839384  0.030179247  0.071811406 
  138000   -1798257.6    10599.238    401.60046    76.914057    88.813394    81.150246    1404.9632  0.044627579  0.046031356  0.058653781   0.14931272  0.020850062  0.021257523   0.02980137  0.071908955 
  139000   -1798185.7    10526.481    245.81223    76.914057    88.813394    81.150246    1395.3191  0.045644776  0.045237224  0.059562669   0.15044467  0.021129121    0.0207863  0.029951039  0.071866459 
  140000   -1798261.6    10572.784    140.93934    76.914057    88.813394    81.150246    1401.4566  0.044728517  0.045012129  0.059599238   0.14933988  0.020748056  0.020133575  0.029376964  0.070258594 
  141000   -1798230.5    10489.987    294.99777    76.914057    88.813394    81.150246    1390.4817  0.045166645  0.045420481  0.060566565   0.15115369   0.02093256  0.020758003  0.030140039  0.071830603 
  142000   -1798156.9     10607.93    799.00025    76.914057    88.813394    81.150246    1406.1154  0.046458527   0.04573419  0.060216674   0.15240939  0.021410421  0.020892876  0.029619675  0.071922971 
  143000     -1798311    10554.834   -43.533052    76.914057    88.813394    81.150246    1399.0774  0.045582424  0.045072877  0.060390258   0.15104556   0.02046012  0.020520672  0.029934871  0.070915663 
  144000   -1798213.8    10532.448    73.175808    76.914057    88.813394    81.150246      1396.11  0.046941617  0.045085011  0.061041768    0.1530684  0.021512772  0.020779899  0.030283397  0.072576068 
  145000   -1798158.5     10601.07    646.95801    76.914057    88.813394    81.150246    1405.2061  0.046527876  0.045426509  0.059647241   0.15160163  0.021125894  0.020658623  0.030026963   0.07181148 
  146000   -1798211.4    10570.674    320.79126    76.914057    88.813394    81.150246    1401.1769  0.047938562  0.045305511  0.061702118   0.15494619  0.021009712  0.020490985  0.030215003  0.071715701 
  147000   -1798331.8    10545.155   -125.98652    76.914057    88.813394    81.150246    1397.7944  0.047720524  0.045462927  0.060581695   0.15376515  0.020332345  0.020751892  0.029068729  0.070152965 
  148000   -1798213.9    10575.902     265.7589    76.914057    88.813394    81.150246      1401.87   0.04781953  0.045766614  0.060161132   0.15374728   0.02082904  0.020544732  0.029177067  0.070550839 
  149000   -1798175.9    10605.425    588.83594    76.914057    88.813394    81.150246    1405.7834  0.047675416  0.045945188  0.060509336   0.15412994  0.020577267   0.02047903  0.029651155  0.070707452 
  150000   -1798198.5    10593.457    345.89922    76.914057    88.813394    81.150246    1404.1969  0.048209189  0.046587995  0.061427548   0.15622473  0.020903676  0.020867126  0.029701088  0.071471889 
  151000   -1798188.2    10602.749    421.82327    76.914057    88.813394    81.150246    1405.4286    0.0480125  0.046108774   0.06062095   0.15474222  0.021146881  0.020497402  0.029576054  0.071220337 
  152000   -1798266.5    10576.238   -231.33437    76.914057    88.813394    81.150246    1401.9145   0.04779963  0.046187403  0.062453127   0.15644016  0.020497804  0.020401965  0.030206517  0.071106286 
  153000   -1798243.7    10592.849    444.69364    76.914057    88.813394    81.150246    1404.1163  0.048080013  0.047517915  0.062195338   0.15779327  0.020522351  0.021116224   0.03041088  0.072049455 
  154000   -1798210.9    10525.064   -204.65433    76.914057    88.813394    81.150246    1395.1312  0.049160271  0.046871626  0.062693184   0.15872508  0.021104408  0.020616213  0.029779206  0.071499827 
  155000   -1798252.2     10505.41    128.00265    76.914057    88.813394    81.150246     1392.526  0.048176984  0.046585904   0.06232728   0.15709017   0.02064542   0.02012906  0.029843285  0.070617764 
  156000   -1798286.8    10604.181    107.09255    76.914057    88.813394    81.150246    1405.6184   0.04818126  0.046332864  0.061460945   0.15597507  0.020282378  0.020454624  0.029045062  0.069782064 
  157000   -1798269.8    10591.847    -126.5259    76.914057    88.813394    81.150246    1403.9836  0.049505984  0.047389792  0.061607064   0.15850284     0.021344  0.020127192  0.029420763  0.070891955 
  158000     -1798251     10568.27   -140.33186    76.914057    88.813394    81.150246    1400.8583  0.048656175   0.04769031  0.062292985   0.15863947  0.021359194  0.020970154   0.02967456  0.072003907 
  159000   -1798272.1    10540.654    51.711287    76.914057    88.813394    81.150246    1397.1977  0.048727201   0.04722309  0.061815889   0.15776618  0.021078564   0.02081044  0.029620587  0.071509591 
  160000     -1798210    10541.838    324.55835    76.914057    88.813394    81.150246    1397.3547  0.048647598  0.047585513  0.063431206   0.15966432  0.020621298  0.020486407  0.030253156  0.071360861 
  161000   -1798248.9    10606.678    666.92462    76.914057    88.813394    81.150246    1405.9494  0.049181386  0.047264695   0.06204612    0.1584922  0.020505039  0.020875029  0.029285449  0.070665518 
  162000     -1798286    10522.105   -265.14807    76.914057    88.813394    81.150246     1394.739  0.049109019  0.047252023  0.061650972   0.15801201  0.020336573   0.01994247  0.029391988  0.069671031 
  163000   -1798278.6    10577.894   -316.40116    76.914057    88.813394    81.150246    1402.1341  0.049238799  0.047642804  0.062601338   0.15948294  0.021197714  0.020097506  0.029471931  0.070767151 
  164000   -1798246.8    10502.874    154.32302    76.914057    88.813394    81.150246    1392.1898  0.048668104  0.048630131  0.063132477   0.16043071  0.021084312  0.021058595  0.029922628  0.072065536 
  165000   -1798217.2    10600.639    570.54983    76.914057    88.813394    81.150246    1405.1489  0.049612222  0.048604856  0.063938602   0.16215568  0.020811198  0.021079151  0.029944196  0.071834546 
  166000     -1798289    10580.481   -37.524192    76.914057    88.813394    81.150246    1402.4769   0.04969678  0.047956853   0.06361162   0.16126525  0.020296828  0.021053815   0.02966293  0.071013572 
  167000   -1798187.7    10547.299    508.04881    76.914057    88.813394    81.150246    1398.0785  0.049708107  0.048016281  0.063299074   0.16102346  0.020717375  0.020471676  0.029797514  0.070986564 
  168000   -1798261.9    10613.047    247.69744    76.914057    88.813394    81.150246    1406.7936  0.049870933  0.048314035   0.06442603     0.162611  0.020674977  0.020539199  0.030626712  0.071840887 
  169000   -1798255.5    10644.334    205.51694    76.914057    88.813394    81.150246    1410.9409  0.049006337  0.048223542  0.062719331   0.15994921  0.020937732   0.02089516  0.029775625  0.071608517 
  170000   -1798193.3    10622.506    657.44389    76.914057    88.813394    81.150246    1408.0475  0.049768985  0.048083892  0.063419538   0.16127242  0.021333625  0.021112713    0.0302626  0.072708939 
  171000   -1798214.3     10594.52   -46.932406    76.914057    88.813394    81.150246    1404.3378  0.049266105  0.048890695  0.062949658   0.16110646  0.020474023  0.020597204   0.02908952  0.070160747 
  172000   -1798223.6    10653.529    755.90422    76.914057    88.813394    81.150246    1412.1596  0.049151335  0.048380075  0.064256598   0.16178801   0.02056817  0.021130136  0.029454684  0.071152991 
  173000   -1798281.1    10575.633    47.747092    76.914057    88.813394    81.150246    1401.8343  0.049793987  0.048483281   0.06411583    0.1623931  0.021091753  0.021159212  0.029712409  0.071963373 
  174000   -1798179.4    10593.965    503.49245    76.914057    88.813394    81.150246    1404.2643  0.049656606  0.048509923  0.064576623   0.16274315  0.021069709  0.020594144  0.029815184  0.071479036 
  175000   -1798262.7    10595.526    417.98061    76.914057    88.813394    81.150246    1404.4711  0.049912243  0.049706196  0.064572117   0.16419056   0.02070697  0.021231599  0.029447209  0.071385778 
  176000   -1798212.3    10587.445    303.09568    76.914057    88.813394    81.150246    1403.4001  0.050203728  0.049113675  0.063346826   0.16266423  0.020971836  0.021539579  0.029287814  0.071799229 
  177000   -1798214.3    10564.594    429.73955    76.914057    88.813394    81.150246    1400.3711  0.051131405  0.048806912  0.063093144   0.16303146  0.021432896   0.02045545  0.029179643  0.071067989 
  178000   -1798200.2    10494.875    46.048146    76.914057    88.813394    81.150246    1391.1296   0.05042739  0.048578853  0.064192333   0.16319858  0.020643428  0.020915337  0.029312917  0.070871683 
  179000   -1798282.9    10561.963   -246.27392    76.914057    88.813394    81.150246    1400.0223  0.051101079  0.048874388  0.063914755   0.16389022  0.020527832  0.020852576  0.028508742  0.069889151 
  180000   -1798235.8    10580.839    224.15796    76.914057    88.813394    81.150246    1402.5243  0.050433488  0.049954731  0.064446345   0.16483456  0.020821367  0.020940714  0.029120276  0.070882356 
  181000   -1798247.9    10591.692    179.68178    76.914057    88.813394    81.150246     1403.963  0.050556979  0.048816943  0.065840881    0.1652148  0.020916205  0.020874948  0.030192365  0.071983517 
  182000     -1798173    10554.345    241.31796    76.914057    88.813394    81.150246    1399.0125  0.051154276  0.049708489  0.066129324   0.16699209  0.020888755  0.021447796  0.029086837  0.071423388 
  183000   -1798312.3    10590.828   -40.196862    76.914057    88.813394    81.150246    1403.8484  0.050949096    0.0495987  0.065086675   0.16563447  0.020774833  0.020877152   0.02842318  0.070075164 
  184000   -1798266.6    10592.215    167.59839    76.914057    88.813394    81.150246    1404.0323  0.050900528  0.048296937  0.065296176   0.16449364  0.020911498  0.019839408  0.029755648  0.070506555 
  185000   -1798280.3    10584.145    520.40515    76.914057    88.813394    81.150246    1402.9626  0.051148281  0.049091256  0.065066652   0.16530619  0.020314325  0.020210925  0.028991498  0.069516749 
  186000   -1798198.3    10558.554    413.97292    76.914057    88.813394    81.150246    1399.5705   0.05155667  0.049729275  0.064719848   0.16600579   0.02062438  0.021051802  0.028886785  0.070562968 
  187000   -1798246.4    10575.634    270.02115    76.914057    88.813394    81.150246    1401.8345   0.05167232  0.049969534  0.066095683   0.16773754  0.021605909  0.020850191  0.030606572  0.073062672 
  188000   -1798299.3    10602.785    294.17617    76.914057    88.813394    81.150246    1405.4334   0.05136947  0.049887349  0.066267939   0.16752476  0.020616645  0.020329818  0.029931076  0.070877539 
  189000   -1798180.4    10576.904    144.45395    76.914057    88.813394    81.150246    1402.0028  0.051458051  0.050041492  0.065344588   0.16684413   0.02116154  0.020870935  0.029514471  0.071546947 
  190000   -1798226.4    10587.295    456.39781    76.914057    88.813394    81.150246    1403.3802   0.05132373  0.050289808  0.066449756   0.16806329  0.020221769  0.020690628  0.029568345  0.070480742 
  191000   -1798221.1    10565.865    235.14026    76.914057    88.813394    81.150246    1400.5395  0.051098443  0.050409754  0.064966743   0.16647494  0.020396876  0.019981208  0.029482529  0.069860612 
  192000   -1798294.4    10525.653    68.238129    76.914057    88.813394    81.150246    1395.2093  0.052335975  0.050569946  0.065500156   0.16840608  0.021206656  0.020747979   0.02895565  0.070910285 
  193000   -1798196.8    10531.795    133.37522    76.914057    88.813394    81.150246    1396.0235  0.051455764   0.05084303  0.065251118   0.16754991  0.020683048  0.020723543  0.028821705  0.070228296 
  194000   -1798163.6    10583.685    692.29655    76.914057    88.813394    81.150246    1402.9016  0.051709423  0.050500879   0.06731686   0.16952716  0.021010952  0.020408386   0.02967337  0.071092708 
  195000   -1798166.4    10537.541     348.3239    76.914057    88.813394    81.150246     1396.785  0.052459558  0.051668112  0.067133625    0.1712613  0.021173359  0.020802276  0.029777766  0.071753402 
  196000     -1798194    10605.502    250.99314    76.914057    88.813394    81.150246    1405.7935   0.05197293  0.052686422  0.067543515   0.17220287   0.02078548  0.020996631  0.029390344  0.071172454 
  197000   -1798201.4    10515.618    225.71583    76.914057    88.813394    81.150246    1393.8792  0.051999072  0.051481999  0.066403693   0.16988476  0.020963447  0.020843218  0.028868895  0.070675559 
  198000   -1798220.5    10537.571    71.165187    76.914057    88.813394    81.150246     1396.789  0.052478505  0.051433976  0.066381776   0.17029426  0.020975652  0.020841715  0.029235843   0.07105321 
  199000   -1798289.2    10579.545    213.46037    76.914057    88.813394    81.150246    1402.3529  0.052642792  0.051021148  0.066246291   0.16991023  0.021328747  0.020586424  0.028405313  0.070320485 
  200000   -1798238.3    10566.375    275.89327    76.914057    88.813394    81.150246    1400.6071  0.052003684  0.050744365  0.067136682   0.16988473  0.020693355  0.020680881  0.030059733  0.071433969 
  201000   -1798225.6    10540.702    312.90623    76.914057    88.813394    81.150246    1397.2041  0.052392814  0.051634444  0.067638363   0.17166562  0.021256828  0.020559124  0.030172023  0.071987976 
  202000   -1798180.9    10593.844     768.8893    76.914057    88.813394    81.150246    1404.2483   0.05182302  0.050931246  0.067636994   0.17039126  0.020993311  0.020626252  0.029636279  0.071255843 
  203000   -1798250.5    10585.031     150.6705    76.914057    88.813394    81.150246    1403.0801  0.053245662  0.051761941  0.067731847   0.17273945  0.020818457  0.020889907  0.030491417  0.072199781 
  204000   -1798292.9    10561.397      254.714    76.914057    88.813394    81.150246    1399.9473  0.052882667  0.052008121  0.068757652   0.17364844   0.02072163  0.020914355  0.031324184  0.072960168 
  205000   -1798253.9    10522.878    148.65663    76.914057    88.813394    81.150246    1394.8414  0.052465084  0.052265194  0.067886371   0.17261665   0.02083509  0.020773265   0.02959735  0.071205705 
  206000   -1798291.7    10531.978   -310.37006    76.914057    88.813394    81.150246    1396.0477  0.052046326  0.051987204  0.068797344   0.17283087  0.020524719  0.020799238  0.029737543    0.0710615 
  207000   -1798221.1     10594.82    293.13462    76.914057    88.813394    81.150246    1404.3776  0.052961735  0.051999084  0.068489782    0.1734506  0.020866467  0.020462571  0.030032892  0.071361929 
  208000   -1798271.7     10620.56    136.06554    76.914057    88.813394    81.150246    1407.7895  0.053090886  0.052431015  0.068919457   0.17444136  0.021360803  0.020490968  0.029825248  0.071677019 
  209000   -1798242.1    10600.827   -5.6638605    76.914057    88.813394    81.150246    1405.1738   0.05327041  0.052114087  0.069076148   0.17446064   0.02110928    0.0200369  0.029735991  0.070882171 
  210000   -1798242.9    10634.522    289.67673    76.914057    88.813394    81.150246    1409.6402  0.053069482  0.053005043  0.070776352   0.17685088   0.02032609  0.021486887  0.029754018  0.071566994 
  211000     -1798316      10562.7   -318.89731    76.914057    88.813394    81.150246      1400.12  0.054258316  0.052677867  0.069977548   0.17691373  0.021579074  0.020979194  0.029902126  0.072460394 
  212000   -1798162.8     10578.08    786.97859    76.914057    88.813394    81.150246    1402.1587  0.053357412  0.053270658  0.069888302   0.17651637  0.020797237  0.021051897  0.029803081  0.071652215 
  213000   -1798242.2    10561.081   -150.55606    76.914057    88.813394    81.150246    1399.9054  0.053111066  0.053146724   0.07015998   0.17641777  0.020645699  0.021180669  0.030642038  0.072468406 
  214000   -1798235.6    10583.553    -219.7309    76.914057    88.813394    81.150246    1402.8841  0.054016842  0.052975658  0.070278609   0.17727111  0.021382061  0.020722137  0.030469166  0.072573363 
  215000   -1798267.9    10533.034    37.110832    76.914057    88.813394    81.150246    1396.1876  0.053840325  0.052888604  0.069088812   0.17581774  0.020875065  0.020660942  0.029785128  0.071321135 
  216000   -1798227.6    10561.631     129.2182    76.914057    88.813394    81.150246    1399.9783  0.053865658  0.054153456   0.07139686   0.17941597  0.020648972  0.021074676  0.030672961  0.072396609 
  217000     -1798240    10536.317    98.459249    76.914057    88.813394    81.150246    1396.6229  0.053579401  0.053704407  0.070584056   0.17786786  0.020410815  0.020772338   0.02997936  0.071162512 
  218000   -1798241.5    10608.698    80.988092    76.914057    88.813394    81.150246    1406.2171  0.054312424  0.053032341  0.070999395   0.17834416  0.020750186  0.019735759  0.029324034  0.069809979 
  219000   -1798243.3    10591.913    324.26349    76.914057    88.813394    81.150246    1403.9922  0.054248542  0.054128979  0.072021556   0.18039908  0.020891065  0.020943059  0.030526943  0.072361067 
  220000   -1798253.1    10554.355    264.54811    76.914057    88.813394    81.150246    1399.0139  0.054833391  0.054310688  0.071938193   0.18108227  0.020957122  0.020734514  0.029541491  0.071233128 
  221000     -1798283    10604.558   -228.80476    76.914057    88.813394    81.150246    1405.6684   0.05440317  0.053322779  0.070748343   0.17847429  0.020823868  0.020571551  0.029552622  0.070948041 
  222000   -1798312.2    10592.592   -4.0322052    76.914057    88.813394    81.150246    1404.0823  0.054289519  0.053660236  0.071632723   0.17958248  0.020676057  0.020960441  0.029907192   0.07154369 
  223000   -1798186.2    10521.936    507.84921    76.914057    88.813394    81.150246    1394.7165  0.055612986  0.053358987  0.072187032     0.181159  0.020978766  0.020504065   0.03011698   0.07159981 
  224000   -1798222.2    10578.049    203.68175    76.914057    88.813394    81.150246    1402.1546  0.055082636  0.054210988  0.072178125   0.18147175  0.020394335  0.020980659  0.030086864  0.071461857 
  225000   -1798287.7    10508.355   -448.19707    76.914057    88.813394    81.150246    1392.9163  0.055590119  0.053488216  0.073397278   0.18247561  0.020843529  0.020233488  0.030210264  0.071287281 
  226000   -1798300.6    10538.316   -117.44741    76.914057    88.813394    81.150246    1396.8878  0.054971129  0.053685546  0.071594743   0.18025142  0.020907322  0.020559485  0.030272094  0.071738901 
  227000   -1798284.3    10631.083    135.82066    76.914057    88.813394    81.150246    1409.1843  0.055047248    0.0541294  0.072626344   0.18180299  0.020786708  0.020784818  0.030542266  0.072113792 
  228000   -1798283.4    10588.346   -93.081786    76.914057    88.813394    81.150246    1403.5195  0.055095791  0.053122619  0.073320924   0.18153933  0.021400365  0.020202016  0.031062343  0.072664724 
  229000   -1798259.7    10589.835   -71.685984    76.914057    88.813394    81.150246    1403.7169  0.055420639  0.053266023  0.073357316   0.18204398  0.021359935  0.020067093  0.031258739  0.072685767 
  230000     -1798228    10582.413     10.77484    76.914057    88.813394    81.150246     1402.733  0.055724462  0.053787783  0.071332695   0.18084494  0.021944229  0.020863168  0.029648781  0.072456177 
  231000   -1798231.1    10515.318     137.3659    76.914057    88.813394    81.150246    1393.8393  0.054973646  0.054843152  0.072626709   0.18244351  0.020820922  0.021151181  0.030532612  0.072504715 
  232000   -1798222.3    10561.643    548.88186    76.914057    88.813394    81.150246    1399.9799  0.054992236  0.054083699  0.073257235   0.18233317   0.02066017  0.020963976  0.031176778  0.072800923 
  233000   -1798231.5    10531.107    281.79716    76.914057    88.813394    81.150246    1395.9322  0.055192791  0.053332665  0.072696982   0.18122244  0.021174475  0.020226843  0.030652113  0.072053431 
  234000   -1798203.5      10531.9     451.0837    76.914057    88.813394    81.150246    1396.0373  0.055850063  0.054768968  0.073797851   0.18441688  0.021331006  0.021110621  0.031097534  0.073539162 
  235000   -1798232.6    10605.217   -14.974011    76.914057    88.813394    81.150246    1405.7558  0.055156079  0.054171528  0.074351695    0.1836793  0.020778788  0.020436223  0.031771021  0.072986031 
  236000   -1798244.2     10571.14    431.36356    76.914057    88.813394    81.150246    1401.2387  0.056010596  0.053142856  0.073759618   0.18291307  0.020875083  0.020349085  0.031827865  0.073052033 
  237000   -1798260.1    10566.831   -51.672018    76.914057    88.813394    81.150246    1400.6675  0.056058854  0.053341819  0.074237956   0.18363863  0.021105808  0.020483601  0.031579812  0.073169221 
  238000     -1798246    10520.847   -59.166022    76.914057    88.813394    81.150246    1394.5722   0.05620951  0.054396201  0.073573151   0.18417886  0.020737194  0.020917035  0.031668454  0.073322682 
  239000   -1798261.5    10607.919   -7.9496188    76.914057    88.813394    81.150246    1406.1139  0.056444635   0.05423104  0.073536638   0.18421231  0.021535786  0.020513695  0.031178341  0.073227821 
  240000   -1798220.2    10536.092    277.62393    76.914057    88.813394    81.150246    1396.5931  0.057134381   0.05407872  0.074465925   0.18567903  0.021303287  0.020638822  0.032430204  0.074372313 
  241000   -1798236.3    10538.814    382.63772    76.914057    88.813394    81.150246    1396.9539  0.056241978  0.055776079  0.074423618   0.18644167  0.020718405  0.021568624  0.031020734  0.073307763 
  242000   -1798223.4    10482.135     119.3571    76.914057    88.813394    81.150246    1389.4408  0.057521675  0.054183641  0.075299446   0.18700476  0.021467206  0.020437269  0.031577232  0.073481707 
  243000   -1798214.6     10554.95    237.43231    76.914057    88.813394    81.150246    1399.0927  0.056805433   0.05426237  0.075711062   0.18677887  0.020990199  0.020459444  0.032314169  0.073763812 
  244000   -1798265.1    10579.833    217.24335    76.914057    88.813394    81.150246     1402.391  0.057339175  0.055341341  0.075769101   0.18844962    0.0208359  0.020663845  0.032030906  0.073530651 
  245000   -1798194.1    10533.221    360.89152    76.914057    88.813394    81.150246    1396.2124  0.055834751  0.054840772  0.073507836   0.18418336  0.020518443  0.021452511  0.030155948  0.072126901 
  246000   -1798260.5    10601.192   -14.332254    76.914057    88.813394    81.150246    1405.2222  0.056510472  0.054346107  0.074728602   0.18558518  0.020956413   0.02025332  0.030969209  0.072178941 
  247000   -1798270.6    10611.329    379.37324    76.914057    88.813394    81.150246    1406.5659  0.056019849  0.054480231  0.075476832   0.18597691  0.020802242  0.019768499  0.031738649   0.07230939 
  248000   -1798255.2     10537.06    351.24964    76.914057    88.813394    81.150246    1396.7214  0.057166003  0.055527994  0.075273762   0.18796776  0.021126988   0.02082444  0.032254556  0.074205984 
  249000   -1798251.1    10571.247   -179.05064    76.914057    88.813394    81.150246     1401.253    0.0578462  0.054861719  0.076155896   0.18886381  0.021468727  0.020377078   0.03146278  0.073308585 
  250000   -1798225.2    10600.247    263.98746    76.914057    88.813394    81.150246    1405.0969  0.056084512  0.055046884  0.075088025   0.18621942  0.020706282  0.020142156  0.031200625  0.072049063 
  251000   -1798259.1    10624.905    253.36002    76.914057    88.813394    81.150246    1408.3655  0.056296853  0.055346175  0.074519275    0.1861623  0.020279098  0.020812525  0.030776016   0.07186764 
  252000   -1798293.1    10523.107    8.2287842    76.914057    88.813394    81.150246    1394.8718  0.056348108   0.05535897  0.074434152   0.18614123  0.020900734  0.020619332  0.031010037  0.072530103 
  253000     -1798254    10519.566    359.72163    76.914057    88.813394    81.150246    1394.4024  0.056357127  0.055375081  0.075114131   0.18684634  0.020551248  0.020458873  0.031091316  0.072101438 
  254000   -1798165.4    10597.422    709.86839    76.914057    88.813394    81.150246    1404.7225  0.057188248  0.054971252  0.076073756   0.18823326  0.020958702  0.020424001  0.032508512  0.073891216 
  255000   -1798277.4     10586.86   -353.25178    76.914057    88.813394    81.150246    1403.3225  0.057616174   0.05542756  0.076270839   0.18931457  0.020955324  0.021212284  0.031964437  0.074132044 
  256000   -1798244.8    10519.259   -213.50588    76.914057    88.813394    81.150246    1394.3618    0.0574784  0.056329168  0.075649368   0.18945694  0.020840382  0.020928075  0.031713352  0.073481809 
  257000   -1798256.3    10561.388   -265.56371    76.914057    88.813394    81.150246    1399.9461  0.057712489  0.056639961  0.076204685   0.19055714  0.021151263  0.020761977  0.032169526  0.074082766 
  258000   -1798211.9    10620.813    781.32236    76.914057    88.813394    81.150246     1407.823  0.057696373  0.055794297  0.075869171   0.18935984  0.020680779  0.020475556  0.031327677  0.072484012 
  259000   -1798232.3    10531.153   -40.305397    76.914057    88.813394    81.150246    1395.9384  0.058304816  0.055863557  0.075968848   0.19013722   0.02156155   0.02040909  0.031773895  0.073744535 
  260000   -1798281.5    10635.689    395.52969    76.914057    88.813394    81.150246    1409.7949  0.058217017   0.05610392  0.076232152   0.19055309  0.021161473  0.020635921  0.031101156   0.07289855 
  261000   -1798241.8    10567.658    271.00072    76.914057    88.813394    81.150246    1400.7773  0.058201035  0.055918894  0.076036779   0.19015671  0.021691442  0.020571189  0.032061241  0.074323872 
  262000   -1798258.1    10632.817    491.18996    76.914057    88.813394    81.150246    1409.4143   0.05807304  0.055734085  0.075836746   0.18964387  0.020797529  0.020590195  0.031882125  0.073269849 
  263000   -1798286.9    10506.693   -12.201694    76.914057    88.813394    81.150246    1392.6961  0.058656485  0.056289176  0.075513345   0.19045901  0.020857072  0.020720689    0.0314932  0.073070961 
  264000   -1798231.8    10557.157    377.58413    76.914057    88.813394    81.150246    1399.3853  0.058976592  0.056215499  0.076258651   0.19145074  0.021259551   0.02064231  0.031531143  0.073433004 
  265000   -1798216.2    10545.354    284.13898    76.914057    88.813394    81.150246    1397.8207  0.059061069  0.056995627  0.077360123   0.19341682  0.020838675  0.020517402  0.031622123  0.072978199 
  266000   -1798220.5    10551.125    712.15348    76.914057    88.813394    81.150246    1398.5857  0.059341519  0.057519729  0.077290309   0.19415156  0.020983993  0.020853527  0.032400869  0.074238389 
  267000   -1798252.4    10608.904    73.841581    76.914057    88.813394    81.150246    1406.2445   0.05807337  0.056555932  0.077291881   0.19192118  0.020423941  0.020626633  0.032614594  0.073665168 
  268000   -1798267.8    10557.383    -248.5103    76.914057    88.813394    81.150246    1399.4152    0.0611413  0.056652979  0.077922877   0.19571716  0.022008673  0.020318345  0.031084593  0.073411611 
  269000   -1798237.7    10514.007    165.61298    76.914057    88.813394    81.150246    1393.6655  0.058454426    0.0563936   0.07716813   0.19201616  0.020372311  0.020024671  0.031646998  0.072043979 
  270000   -1798289.6    10571.164   -135.17936    76.914057    88.813394    81.150246    1401.2419   0.05950396  0.057578541  0.077309387   0.19439189  0.021071241  0.021219179  0.031519571  0.073809991 
  271000   -1798274.4    10534.267   -52.633293    76.914057    88.813394    81.150246    1396.3511  0.060238284  0.057312632   0.07690136   0.19445228  0.021354061  0.020475917  0.032284965  0.074114944 
  272000   -1798271.6    10547.875    305.73557    76.914057    88.813394    81.150246    1398.1548   0.05986368  0.057837429  0.077449219   0.19515033  0.020397882    0.0206452  0.032206876  0.073249958 
  273000   -1798243.5    10608.128    91.538453    76.914057    88.813394    81.150246    1406.1417  0.059964659  0.057941852  0.078905912   0.19681242  0.020939173  0.020867872  0.032734573  0.074541619 
  274000   -1798207.6    10544.919    437.89114    76.914057    88.813394    81.150246    1397.7631   0.06047108  0.058285305  0.078002842   0.19675923  0.021506865  0.020840327  0.032648319   0.07499551 
  275000   -1798202.6    10572.546    466.74565    76.914057    88.813394    81.150246    1401.4252  0.060765084  0.057782126  0.079126659   0.19767387  0.021331875  0.020136557  0.032133623  0.073602054 
  276000   -1798235.3    10559.017    778.09411    76.914057    88.813394    81.150246    1399.6318  0.059367039  0.057862486  0.078728023   0.19595755  0.020332086  0.020391589  0.032282095   0.07300577 
  277000   -1798151.6    10569.747    547.02561    76.914057    88.813394    81.150246    1401.0541  0.060209372  0.059471385  0.077207805   0.19688856  0.020743247   0.02189317  0.032247219  0.074883636 
  278000     -1798245     10545.81     637.7782    76.914057    88.813394    81.150246    1397.8812  0.060191133  0.058595473  0.078671771   0.19745838  0.020893433  0.021194075  0.032541006  0.074628514 
  279000   -1798191.4     10600.13    572.43196    76.914057    88.813394    81.150246    1405.0815   0.06023742  0.058511293  0.078955226   0.19770394  0.020784055  0.020768339  0.032024655  0.073577049 
  280000   -1798326.9    10498.876   -527.70416    76.914057    88.813394    81.150246    1391.6599  0.061084808  0.059007441  0.077628845   0.19772109  0.021378819  0.021075943  0.032079295  0.074534057 
  281000   -1798194.7    10591.375    615.36096    76.914057    88.813394    81.150246     1403.921  0.060350284  0.057866857  0.077836601   0.19605374  0.020393283  0.020197805  0.032218401  0.072809489 
  282000   -1798254.5    10558.748   -60.253365    76.914057    88.813394    81.150246    1399.5961  0.059856516  0.058488765  0.078652319    0.1969976  0.020620915  0.020666448  0.032391444  0.073678806 
  283000     -1798226    10540.303    185.26559    76.914057    88.813394    81.150246    1397.1511  0.060922011   0.05836472  0.078631733   0.19791846  0.020843539  0.020359308   0.03261696  0.073819807 
  284000   -1798284.9    10620.954    144.65654    76.914057    88.813394    81.150246    1407.8417   0.06101893  0.059197951  0.077911692   0.19812857  0.021355428  0.021158215  0.032271538   0.07478518 
  285000   -1798315.9    10520.627   -333.54244    76.914057    88.813394    81.150246    1394.5431  0.060459544  0.058347247  0.078302062   0.19710885  0.020701579   0.01996913  0.032088085  0.072758794 
  286000     -1798234    10577.651    249.67233    76.914057    88.813394    81.150246    1402.1018  0.060073921    0.0578492  0.078859468   0.19678259  0.020873522  0.020155213  0.031895658  0.072924392 
  287000   -1798320.2    10577.599   -392.35876    76.914057    88.813394    81.150246    1402.0949  0.061722655  0.059044785   0.08006759   0.20083503  0.021053511  0.021136208  0.031806208  0.073995927 
  288000   -1798218.2    10536.729    338.90393    76.914057    88.813394    81.150246    1396.6774  0.061179224  0.059336489  0.080002444   0.20051816  0.021155292  0.020466001  0.032971211  0.074592503 
  289000   -1798232.5    10563.788    165.16439    76.914057    88.813394    81.150246    1400.2643  0.060644027  0.058614707  0.078561187   0.19781992  0.020815116  0.020716238   0.03133352  0.072864874 
  290000   -1798241.5    10584.796    118.88405    76.914057    88.813394    81.150246    1403.0489  0.062101368  0.059060327   0.08006694   0.20122864  0.021452057  0.020984437  0.032881139  0.075317633 
  291000   -1798304.7    10562.562   -198.44419    76.914057    88.813394    81.150246    1400.1017  0.060810837  0.059054447  0.079387359   0.19925264   0.02054231  0.020699151  0.032467687  0.073709148 
  292000   -1798265.6    10500.374    73.230674    76.914057    88.813394    81.150246    1391.8585  0.060994668  0.058699971  0.080013132   0.19970777  0.020657034  0.020458747  0.033328319    0.0744441 
  293000   -1798244.4    10506.378    143.91129    76.914057    88.813394    81.150246    1392.6544  0.062161353  0.058555751  0.079478443   0.20019555  0.021211849   0.02034099  0.031829126  0.073381965 
  294000   -1798204.5    10589.326    245.53468    76.914057    88.813394    81.150246    1403.6493  0.061992393  0.058916073  0.079681273   0.20058974  0.020349961  0.020753681  0.032788169  0.073891811 
  295000   -1798168.6    10496.505      512.714    76.914057    88.813394    81.150246    1391.3457  0.061960799  0.059604637  0.080967684   0.20253312  0.020937731   0.02051422  0.032205216  0.073657167 
  296000   -1798175.9    10539.324    378.57028    76.914057    88.813394    81.150246    1397.0214  0.062084639  0.059546046   0.07945551    0.2010862  0.021159769  0.020460371  0.031846281  0.073466421 
  297000   -1798204.1    10573.526    461.87937    76.914057    88.813394    81.150246    1401.5551  0.061862339  0.059951127  0.080614251   0.20242772  0.020382097  0.020443344  0.032951902  0.073777344 
  298000   -1798265.7    10529.555    474.53877    76.914057    88.813394    81.150246    1395.7266  0.062052951  0.058935125  0.079504734   0.20049281  0.020528024   0.02013681  0.032753315  0.073418149 
  299000   -1798305.3    10610.016   -244.78523    76.914057    88.813394    81.150246    1406.3919   0.06185838  0.059423592  0.079887685   0.20116966  0.021368296  0.020544758  0.032720003  0.074633056 
  300000   -1798186.2    10574.686    595.72392    76.914057    88.813394    81.150246    1401.7088  0.062035179  0.059637725  0.080664734   0.20233764  0.021126205  0.020669019  0.032824321  0.074619546 
  301000     -1798279    10580.933   -20.626778    76.914057    88.813394    81.150246    1402.5368  0.061936145  0.059133065  0.079976055   0.20104527  0.021239775  0.020761461  0.033046547  0.075047783 
  302000   -1798207.4    10548.849    585.98835    76.914057    88.813394    81.150246     1398.284  0.062647937   0.05956931  0.081380961   0.20359821  0.020900223  0.020315737  0.033342817  0.074558776 
  303000   -1798219.3    10533.203    178.38759    76.914057    88.813394    81.150246    1396.2101  0.062651245  0.059778092  0.080019654   0.20244899  0.020859926  0.020615498  0.031810689  0.073286113 
  304000   -1798235.2    10570.581    289.19793    76.914057    88.813394    81.150246    1401.1646  0.061620339  0.059818027  0.081610014   0.20304838  0.020518483   0.02050215  0.032979935  0.074000568 
  305000   -1798258.8    10464.544   -282.87346    76.914057    88.813394    81.150246    1387.1091  0.062869726  0.059562462  0.080504569   0.20293676  0.021142663  0.020403466  0.032625023  0.074171152 
  306000   -1798237.6    10604.673    415.67138    76.914057    88.813394    81.150246    1405.6837  0.062282724  0.059684972  0.081321214   0.20328891  0.020421571  0.020218271  0.032633954  0.073273795 
  307000   -1798214.8    10605.449    454.91845    76.914057    88.813394    81.150246    1405.7865  0.062889891  0.060062528  0.081923099   0.20487552  0.020809899  0.020821465  0.033163642  0.074795006 
  308000   -1798278.8    10499.392   -298.41346    76.914057    88.813394    81.150246    1391.7284  0.063135696  0.061030137  0.080948397   0.20511423  0.020832203  0.020886761    0.0330321  0.074751064 
  309000   -1798234.2    10532.806    562.43355    76.914057    88.813394    81.150246    1396.1574  0.063167411  0.060111591  0.080971543   0.20425055  0.021086166  0.020238343  0.032864548  0.074189057 
  310000   -1798210.1    10543.389    150.61652    76.914057    88.813394    81.150246    1397.5603  0.062371745  0.059936427  0.081784067   0.20409224  0.020488004  0.020225377  0.032651947  0.073365328 
  311000   -1798187.1     10502.69    349.54769    76.914057    88.813394    81.150246    1392.1654   0.06219967  0.060366266  0.080687054   0.20325299  0.021173185  0.020897463   0.03252371  0.074594358 
  312000   -1798222.5    10603.685    48.190494    76.914057    88.813394    81.150246    1405.5527  0.062702551  0.061206433  0.082580953   0.20648994  0.021271459  0.020849213  0.033036533  0.075157205 
  313000   -1798240.5    10543.672    407.14536    76.914057    88.813394    81.150246    1397.5977  0.062306032  0.060628929  0.080995583   0.20393054  0.020433276  0.020552425  0.032847512  0.073833213 
  314000   -1798238.3    10533.289   -59.962268    76.914057    88.813394    81.150246    1396.2214  0.062786465  0.060592566  0.082243653   0.20562268  0.020781764  0.020438673  0.032388678  0.073609115 
  315000   -1798271.7    10489.339   -378.55622    76.914057    88.813394    81.150246    1390.3958  0.063269804  0.061552079  0.082370869   0.20719275  0.021286039  0.021235933  0.032477448   0.07499942 
  316000   -1798228.8    10560.112    342.92377    76.914057    88.813394    81.150246     1399.777  0.062987772  0.060868451  0.081122387   0.20497861  0.021049418  0.020653849  0.032361626  0.074064893 
  317000   -1798259.6    10545.117   -44.332988    76.914057    88.813394    81.150246    1397.7893  0.064560315  0.060525505  0.081886232   0.20697205   0.02115549  0.020800924  0.033832316   0.07578873 
  318000   -1798318.1    10527.535   -585.76746    76.914057    88.813394    81.150246    1395.4588  0.063632347  0.061123242   0.08119657   0.20595216  0.020818184  0.020653685  0.032967392  0.074439261 
  319000     -1798216     10539.21    287.14367    76.914057    88.813394    81.150246    1397.0063  0.063540299  0.061756556  0.081918738   0.20721559  0.020743599  0.020875899  0.032770832   0.07439033 
  320000   -1798224.7    10509.105    664.17276    76.914057    88.813394    81.150246    1393.0158  0.063654625     0.061652  0.083243969   0.20855059  0.021042854  0.020956713  0.032956127  0.074955694 
  321000   -1798293.7    10618.998    120.91611    76.914057    88.813394    81.150246    1407.5825  0.063013777  0.060630183  0.082358411   0.20600237  0.020995987  0.020121064  0.033944957  0.075062008 
  322000   -1798273.4    10626.437    262.54869    76.914057    88.813394    81.150246    1408.5685  0.063719955  0.061308052  0.082355065   0.20738307  0.020426868  0.020864315  0.032362048  0.073653231 
  323000   -1798237.4    10539.379    308.43601    76.914057    88.813394    81.150246    1397.0287  0.064577737  0.061648801  0.082887584   0.20911412  0.021657475  0.020838205  0.031961962  0.074457641 
  324000     -1798256    10590.242    120.71651    76.914057    88.813394    81.150246    1403.7708    0.0639527  0.061500809  0.082873886    0.2083274  0.020997449  0.020438227  0.032045305  0.073480981 
  325000   -1798233.1    10525.902    546.25225    76.914057    88.813394    81.150246    1395.2423  0.065297046  0.061176017  0.081819299   0.20829236  0.021281721  0.020366704  0.031950239  0.073598663 
  326000   -1798234.2    10563.762    200.18685    76.914057    88.813394    81.150246    1400.2607  0.064547068   0.06189854  0.083221813   0.20966742  0.020483468   0.02012999  0.033023167  0.073636624 
  327000   -1798255.8    10536.338     64.73266    76.914057    88.813394    81.150246    1396.6256  0.064720902  0.061692376  0.083932498   0.21034578  0.021229846  0.020932863  0.032476825  0.074639534 
  328000   -1798286.5    10558.704   -197.58918    76.914057    88.813394    81.150246    1399.5904  0.064375332  0.061002785  0.082443138   0.20782125  0.020759959  0.020017862  0.032718024  0.073495845 
  329000   -1798251.2    10516.806    217.27884    76.914057    88.813394    81.150246    1394.0366  0.064544944  0.061915464  0.083044132   0.20950454   0.02076468  0.020815359  0.032963445  0.074543484 
  330000   -1798249.8     10581.61    250.66857    76.914057    88.813394    81.150246    1402.6266  0.065025456  0.061966965  0.084442636   0.21143506  0.021170647  0.020427215  0.032897846  0.074495709 
  331000   -1798227.6    10584.938    149.61262    76.914057    88.813394    81.150246    1403.0677  0.064779663  0.063189096  0.082439796   0.21040856    0.0210597  0.020981944  0.031870259  0.073911903 
  332000   -1798232.3    10595.256    185.00627    76.914057    88.813394    81.150246    1404.4355   0.06427526  0.062355032  0.084391717   0.21102201  0.020731535  0.020682634  0.033489067  0.074903236 
  333000   -1798179.5    10557.264    437.19191    76.914057    88.813394    81.150246    1399.3994  0.064275908  0.062799186  0.084665352   0.21174045  0.020502618  0.020803078  0.033965399  0.075271094 
  334000     -1798225    10584.934    257.43577    76.914057    88.813394    81.150246    1403.0672  0.064611008  0.062497163  0.083521842   0.21063001  0.020937855  0.020990729  0.032919282  0.074847866 
  335000   -1798216.6     10591.42    171.93624    76.914057    88.813394    81.150246     1403.927  0.063931699  0.061863144  0.084508907   0.21030375  0.020812084  0.021122639  0.033852574  0.075787297 
  336000   -1798282.5    10575.357    37.089501    76.914057    88.813394    81.150246    1401.7977  0.064317496  0.061575616  0.083692466   0.20958558  0.020582747  0.021132049  0.032038079  0.073752875 
  337000   -1798249.9    10558.466   -251.88564    76.914057    88.813394    81.150246    1399.5588   0.06414838  0.062339451  0.083006622   0.20949445  0.020735338  0.020842444  0.033167352  0.074745134 
  338000   -1798249.3    10534.871    128.64116    76.914057    88.813394    81.150246    1396.4311  0.064593922  0.063056792  0.084116504   0.21176722  0.021118715  0.020633725  0.033837042  0.075589481 
  339000   -1798186.3     10600.71     499.1036    76.914057    88.813394    81.150246    1405.1583  0.065355702  0.062880623  0.083069582   0.21130591  0.021172311  0.021203755  0.032550389  0.074926455 
  340000   -1798181.5    10550.907    357.49242    76.914057    88.813394    81.150246    1398.5568  0.064624997  0.062249735   0.08293483   0.20980956  0.021501085  0.020213811  0.032172886  0.073887783 
  341000   -1798237.2    10480.869   -118.39489    76.914057    88.813394    81.150246     1389.273   0.06506234  0.062802201  0.084575636   0.21244018  0.021247876  0.020822769  0.033173254    0.0752439 
  342000     -1798315    10524.578    191.25263    76.914057    88.813394    81.150246    1395.0668  0.064927757  0.062754121  0.083889398   0.21157128  0.021297453  0.020710441  0.033407621  0.075415515 
  343000     -1798195    10583.558    815.34625    76.914057    88.813394    81.150246    1402.8848  0.065175992  0.063253281  0.084176088   0.21260536  0.021645091  0.020837351  0.032940249  0.075422691 
  344000   -1798206.2     10575.75    149.38199    76.914057    88.813394    81.150246    1401.8499  0.064523848  0.062757524  0.084951894   0.21223327  0.020463719  0.020521077   0.03374834  0.074733136 
  345000     -1798276    10532.735   -375.93574    76.914057    88.813394    81.150246    1396.1481  0.064540321  0.062482061  0.084058115    0.2110805  0.020657598  0.020132489  0.033263223   0.07405331 
  346000   -1798213.8    10563.884    460.52355    76.914057    88.813394    81.150246    1400.2769  0.064203625  0.063364292   0.08409692   0.21166484  0.020930882  0.020583873  0.033196439  0.074711195 
  347000   -1798285.7     10643.64    139.49929    76.914057    88.813394    81.150246    1410.8488  0.064317668  0.062325179  0.084082993   0.21072584  0.020938136  0.020103663  0.032745111   0.07378691 
  348000   -1798164.3    10603.095    635.57247    76.914057    88.813394    81.150246    1405.4745  0.064891785  0.062631826  0.083620223   0.21114383  0.020995993  0.020478467  0.032837292  0.074311752 
  349000   -1798214.6    10607.753    613.13887    76.914057    88.813394    81.150246     1406.092   0.06490211  0.063347923  0.084072189   0.21232222  0.020621319  0.021138283  0.032741002  0.074500604 
  350000   -1798226.9    10532.781    428.17354    76.914057    88.813394    81.150246    1396.1541  0.065711857  0.062636857  0.085007794   0.21335651  0.020986444  0.020321616  0.034022616  0.075330676 
  351000   -1798213.8    10585.399    631.91639    76.914057    88.813394    81.150246    1403.1288   0.06514014  0.062482073  0.085309988    0.2129322  0.020680231  0.019789193  0.033599555  0.074068979 
  352000     -1798272    10562.234   -263.23195    76.914057    88.813394    81.150246    1400.0582  0.065262027  0.062862856  0.083517654   0.21164254  0.020939868  0.020766781  0.032465666  0.074172315 
  353000     -1798198    10619.252    134.28663    76.914057    88.813394    81.150246    1407.6161  0.065313319  0.062124041  0.085084942    0.2125223  0.020878861  0.020541304  0.033370329  0.074790493 
  354000   -1798255.2    10614.278    139.46783    76.914057    88.813394    81.150246    1406.9568  0.065097369  0.063007951  0.084062638   0.21216796   0.02101749  0.021177472  0.032425699  0.074620661 
  355000   -1798237.1    10499.533    137.95462    76.914057    88.813394    81.150246     1391.747  0.065768328  0.063401854  0.084724931   0.21389511   0.02105851  0.020828213  0.032042162  0.073928885 
  356000   -1798173.4    10540.592    597.55747    76.914057    88.813394    81.150246    1397.1895  0.065827794  0.063271127  0.084350412   0.21344933  0.021173218  0.020893201  0.033379051   0.07544547 
  357000   -1798280.2     10545.36   -256.66886    76.914057    88.813394    81.150246    1397.8215  0.066134725  0.063227575  0.085165123   0.21452742  0.020926328  0.020444775  0.033967882  0.075338985 
  358000   -1798251.4    10600.194     34.67616    76.914057    88.813394    81.150246      1405.09  0.064504558  0.064124435  0.084085303   0.21271429  0.020343228  0.020703982   0.03239945   0.07344666 
  359000   -1798241.3    10548.997     368.1284    76.914057    88.813394    81.150246    1398.3036  0.065540024  0.062191483  0.084549556   0.21228106  0.021193967  0.020153761  0.033923162  0.075270891 
  360000   -1798203.1    10542.736      198.883    76.914057    88.813394    81.150246    1397.4738  0.066118553  0.064707756  0.085339112   0.21616542   0.02097109  0.020982955  0.033694523  0.075648568 
  361000   -1798250.6    10572.218    458.25869    76.914057    88.813394    81.150246    1401.3816  0.066282236  0.063674175  0.084090203   0.21404661  0.021049823  0.020534104  0.032706806  0.074290732 
  362000     -1798228    10559.243    272.64433    76.914057    88.813394    81.150246    1399.6617  0.065259463   0.06407322   0.08593631   0.21526899   0.02153137  0.020394157  0.033623486  0.075549013 
  363000   -1798231.3    10574.453    238.95465    76.914057    88.813394    81.150246    1401.6779  0.065517588  0.063599746  0.085684555   0.21480189  0.020760287   0.02089097  0.033092681  0.074743938 
  364000   -1798291.5    10636.333    483.74015    76.914057    88.813394    81.150246    1409.8802  0.065922557  0.062450613  0.085371693   0.21374486  0.020975571  0.020188509  0.032841455  0.074005535 
  365000   -1798294.4    10594.311     549.9659    76.914057    88.813394    81.150246    1404.3102   0.06610151  0.063053101  0.085334922   0.21448953  0.021030687  0.020540198  0.033947357  0.075518242 
  366000   -1798232.6    10553.434      567.772    76.914057    88.813394    81.150246    1398.8917  0.066319138  0.063013623   0.08478651   0.21411927  0.021052681  0.020429923  0.032716195    0.0741988 
  367000     -1798271    10565.679    104.91485    76.914057    88.813394    81.150246    1400.5148  0.065205391  0.063408307  0.085583398    0.2141971  0.020602816  0.020805543  0.033376466  0.074784825 
  368000   -1798226.8    10565.917    133.44856    76.914057    88.813394    81.150246    1400.5464  0.065688366  0.063497466  0.085711628   0.21489746  0.021096633  0.020389939  0.033801509   0.07528808 
  369000   -1798244.4    10527.015    458.04373    76.914057    88.813394    81.150246    1395.3898  0.066357829  0.063260466  0.084966382   0.21458468  0.021209391  0.020644194  0.032955254  0.074808839 
  370000   -1798240.2     10623.75    220.25401    76.914057    88.813394    81.150246    1408.2123   0.06717376   0.06408506  0.084994336   0.21625316  0.021152632  0.020759829  0.033217423  0.075129884 
  371000   -1798235.8    10549.473    319.86085    76.914057    88.813394    81.150246    1398.3667   0.06613787  0.062940183  0.086345376   0.21542343  0.021010433  0.020319347  0.034074066  0.075403846 
  372000   -1798303.7     10599.22    67.522602    76.914057    88.813394    81.150246    1404.9608  0.065926296    0.0644098  0.085868496   0.21620459  0.020776751  0.021152633  0.033493043  0.075422427 
  373000   -1798273.2    10660.243    358.76939    76.914057    88.813394    81.150246    1413.0496  0.066289989  0.064195592  0.084978526   0.21546411  0.021023558  0.020420143  0.032807429   0.07425113 
  374000   -1798279.2    10584.659    83.457742    76.914057    88.813394    81.150246    1403.0308  0.067337364  0.063990348  0.085325734   0.21665345  0.021454358  0.020427531  0.033662782  0.075544671 
  375000   -1798222.1    10586.721    347.57369    76.914057    88.813394    81.150246    1403.3041  0.067976179  0.064053571  0.085895541   0.21792529  0.021257699  0.020611388  0.032863501  0.074732588 
  376000   -1798217.1    10601.746    364.18403    76.914057    88.813394    81.150246    1405.2957  0.067083111  0.063981493  0.085654067   0.21671867   0.02152747  0.020737419  0.032133208  0.074398096 
  377000   -1798279.7    10602.226     261.5977    76.914057    88.813394    81.150246    1405.3593  0.065612877  0.064361542  0.087307884    0.2172823   0.02040292  0.020744857  0.033517719  0.074665496 
  378000   -1798266.4    10565.165    11.344546    76.914057    88.813394    81.150246    1400.4468  0.067029644   0.06477069  0.087094287   0.21889462  0.020886023  0.020853798  0.033725106  0.075464927 
[...]
  907000   -1798220.9    10573.988    451.94118    76.914057    88.813394    81.150246    1401.6163  0.089600646  0.085600143   0.11913697   0.29433776  0.022050539  0.020695629  0.040289378  0.083035546 
  908000   -1798242.7    10567.968    522.71968    76.914057    88.813394    81.150246    1400.8183  0.089347402  0.086281703   0.12009466   0.29572377  0.022956066  0.021038147  0.041640329  0.085634542 
  909000   -1798228.5    10527.211    347.94013    76.914057    88.813394    81.150246    1395.4158  0.090171227  0.086339705   0.11881837    0.2953293   0.02260976   0.02097642  0.040421292  0.084007472 
  910000   -1798230.4    10494.566    316.35657    76.914057    88.813394    81.150246    1391.0886  0.090893793  0.085657626   0.11974933   0.29630075  0.023493527  0.020317055  0.041455886  0.085266468 
  911000   -1798208.8     10516.12    186.18385    76.914057    88.813394    81.150246    1393.9456  0.089014383  0.086108024   0.11847394   0.29359635  0.021806681  0.020994075  0.040052139  0.082852895 
  912000   -1798289.9    10520.868   -187.89392    76.914057    88.813394    81.150246     1394.575  0.089693573  0.087039346   0.12004485   0.29677777  0.021640729  0.021309133  0.041126316  0.084076178 
  913000   -1798267.1    10603.589    490.07491    76.914057    88.813394    81.150246      1405.54  0.091539266  0.086611153   0.12087573   0.29902615  0.022915478  0.020964897  0.040526002  0.084406376 
  914000     -1798191    10550.221    318.78046    76.914057    88.813394    81.150246    1398.4659  0.089419812  0.086413309   0.11851602   0.29434914  0.022043867  0.021064597  0.040244744  0.083353209 
  915000   -1798252.8    10603.003    331.18624    76.914057    88.813394    81.150246    1405.4623  0.090395058  0.086977142    0.1219243    0.2992965  0.022741779  0.021012698  0.040911323    0.0846658 
  916000   -1798203.3    10546.418    771.33592    76.914057    88.813394    81.150246    1397.9618  0.089956688  0.086353996   0.11855011   0.29486079  0.022189854  0.020882203  0.039558504  0.082630561 
  917000   -1798192.5    10531.948    256.48398    76.914057    88.813394    81.150246    1396.0437  0.089274537  0.086278114   0.12014718   0.29569983  0.022465589  0.021225497  0.040060352  0.083751438 
  918000   -1798277.3    10513.853    155.48919    76.914057    88.813394    81.150246    1393.6452  0.089328335  0.086551481   0.11909396   0.29497378  0.022226379  0.021345787    0.0402119  0.083784066 
  919000   -1798211.4     10585.01    375.02984    76.914057    88.813394    81.150246    1403.0772  0.088774742  0.087226629   0.11852115   0.29452253  0.021394966  0.021394473  0.040146203  0.082935642 
  920000   -1798252.2    10604.712    588.72419    76.914057    88.813394    81.150246    1405.6889  0.091320097  0.086401518   0.11842253   0.29614415  0.023560452  0.021216908  0.040136766  0.084914126 
  921000   -1798276.6    10620.761    457.66372    76.914057    88.813394    81.150246    1407.8162  0.089768506  0.085889987   0.11800142   0.29365991  0.022713723  0.021146495  0.039529507  0.083389725 
  922000     -1798196     10582.11     765.1349    76.914057    88.813394    81.150246    1402.6928  0.090323685   0.08631072   0.11979493   0.29642934  0.022196223  0.021024129  0.039955266  0.083175618 
  923000   -1798186.6    10481.976    284.64899    76.914057    88.813394    81.150246    1389.4198  0.089494346  0.086607547   0.11891953   0.29502142  0.022134604  0.021248523    0.0401984  0.083581527 
  924000   -1798293.1    10502.576    139.75293    76.914057    88.813394    81.150246    1392.1503   0.08956362  0.086240291   0.11902196   0.29482588  0.021677005  0.020950592  0.040441766  0.083069363 
  925000   -1798233.4     10585.65    628.19905    76.914057    88.813394    81.150246    1403.1621  0.090778404  0.086392513   0.11881564   0.29598656  0.022865426  0.021342075  0.040166508  0.084374009 
  926000   -1798265.3    10496.436   -59.594397    76.914057    88.813394    81.150246    1391.3365  0.090647155  0.086036675   0.11897059   0.29565443  0.022397761  0.020828382  0.040949331  0.084175474 
  927000   -1798267.4    10548.697    152.82878    76.914057    88.813394    81.150246    1398.2638  0.090353026  0.086487409   0.12025103   0.29709147  0.022405172  0.021237659  0.041310497  0.084953328 
  928000   -1798252.8    10571.274    498.80161    76.914057    88.813394    81.150246    1401.2565  0.089326927  0.086362058   0.11793366   0.29362264  0.022197427  0.020776371  0.038862021  0.081835819 
  929000   -1798260.5    10534.271    489.23769    76.914057    88.813394    81.150246    1396.3517   0.08923324  0.085795606   0.11828639   0.29331524  0.021549416  0.020554541  0.039582566  0.081686523 
  930000   -1798155.4    10621.841    848.43374    76.914057    88.813394    81.150246    1407.9593  0.090144654  0.086414849   0.11917061   0.29573011  0.022309162  0.020598381  0.038691292  0.081598835 
  931000     -1798280    10563.257    148.67882    76.914057    88.813394    81.150246    1400.1938  0.091301561   0.08569247   0.11934227    0.2963363  0.022567563  0.020923607  0.039379848  0.082871017 
  932000   -1798229.8    10528.674    645.75715    76.914057    88.813394    81.150246    1395.6098  0.090286739  0.086369752   0.11930364   0.29596013  0.023159317  0.020715924  0.039458354  0.083333595 
  933000   -1798289.6    10562.312    159.21126    76.914057    88.813394    81.150246    1400.0685  0.088988316  0.086045229   0.11937452   0.29440807  0.021734122  0.021079563  0.039602745   0.08241643 
  934000   -1798228.5    10474.042    335.45012    76.914057    88.813394    81.150246    1388.3681  0.089850137  0.085631665   0.12002843   0.29551024  0.021704212  0.020719675  0.039506712  0.081930599 
  935000   -1798265.8    10609.285    452.39694    76.914057    88.813394    81.150246    1406.2949  0.090070803  0.087761307   0.11805593   0.29588804  0.022537243  0.021278777  0.038523221  0.082339241 
  936000   -1798230.2      10505.2    248.54091    76.914057    88.813394    81.150246    1392.4982  0.089250357  0.087122457   0.11950118     0.295874  0.021833882  0.020401113  0.039609434   0.08184443 
  937000   -1798190.9     10481.56    635.91992    76.914057    88.813394    81.150246    1389.3646  0.090595761  0.087812824   0.12054214   0.29895072  0.022738832  0.021099939   0.03968989   0.08352866 
  938000   -1798142.9    10568.599    696.17622    76.914057    88.813394    81.150246    1400.9019  0.090253298   0.08666285   0.11962933   0.29654548  0.022103614  0.021069838  0.039952805  0.083126257 
  939000   -1798251.8    10517.048    495.74177    76.914057    88.813394    81.150246    1394.0687  0.091559854  0.088058633   0.12016601    0.2997845   0.02271822  0.020535457  0.039536906  0.082790583 
  940000   -1798265.7    10563.441    88.701307    76.914057    88.813394    81.150246    1400.2183  0.091145171  0.087956057   0.12040346   0.29950469  0.022558993  0.021192038  0.038289755  0.082040786 
  941000   -1798257.9     10554.58    414.42655    76.914057    88.813394    81.150246    1399.0437  0.090816916  0.087510128   0.12010469   0.29843174  0.022161459  0.020633674  0.039217214  0.082012347 
  942000   -1798220.6    10594.259    320.22034    76.914057    88.813394    81.150246    1404.3033  0.091696967  0.088281435   0.11942357   0.29940197  0.022551108  0.021292455  0.037740786  0.081584348 
  943000   -1798256.8    10549.943    307.68145    76.914057    88.813394    81.150246    1398.4291  0.090817441  0.087289461   0.12065189   0.29875879  0.021907326  0.020486947  0.039660268  0.082054541 
  944000   -1798239.7     10603.65    299.19504    76.914057    88.813394    81.150246     1405.548   0.09155461  0.087131447   0.12052517   0.29921123  0.022991816  0.020206267  0.038995041  0.082193123 
  945000   -1798292.1    10558.442    230.40805    76.914057    88.813394    81.150246    1399.5555  0.089821258  0.088682061   0.11999569   0.29849901   0.02181927  0.021198987  0.038812018  0.081830275 
  946000   -1798276.6    10654.905    882.57798    76.914057    88.813394    81.150246    1412.3421  0.090992118  0.086956432   0.12096397   0.29891252  0.021911545  0.020160626  0.039106746  0.081178918 
  947000   -1798245.6    10613.144    656.65728    76.914057    88.813394    81.150246    1406.8065  0.090805576  0.087390073   0.12072873   0.29892438  0.022002947  0.021002333   0.03905901   0.08206429 
  948000   -1798255.7    10597.069    141.20148    76.914057    88.813394    81.150246    1404.6758   0.09100213  0.087624648   0.12123637   0.29986315  0.021937375   0.02072209  0.039461165   0.08212063 
  949000   -1798232.2    10587.064    312.33379    76.914057    88.813394    81.150246    1403.3496  0.091974482  0.087414844   0.12170997    0.3010993  0.022748171  0.021521991  0.039814729  0.084084891 
  950000   -1798289.3    10645.286    952.71412    76.914057    88.813394    81.150246    1411.0671  0.092733952  0.087393035   0.12106188   0.30118887  0.022679981  0.020995444  0.039648822  0.083324247 
  951000   -1798206.1    10582.105    1048.0823    76.914057    88.813394    81.150246    1402.6923  0.092321548  0.087348058   0.12160042   0.30127003  0.023135075  0.020297046  0.039137339  0.082569461 
  952000   -1798222.8        10585    1042.3974    76.914057    88.813394    81.150246    1403.0759   0.09139804  0.089045109   0.12104257   0.30148572  0.021432547  0.021195252  0.039941788  0.082569587 
  953000   -1798267.7    10525.624     137.7268    76.914057    88.813394    81.150246    1395.2054  0.091707898  0.087756257    0.1212245   0.30068866  0.021973224  0.020426106  0.038386372  0.080785703 
  954000   -1798231.4    10621.719    774.68226    76.914057    88.813394    81.150246    1407.9431  0.091656467  0.088540514   0.12069186   0.30088884   0.02253386  0.020579052  0.039848847  0.082961758 
  955000   -1798237.8    10623.692    624.77692    76.914057    88.813394    81.150246    1408.2047  0.091422597  0.088708938   0.12167147   0.30180301  0.022067405  0.021423369  0.040499887  0.083990661 
  956000   -1798244.2     10507.06    443.74564    76.914057    88.813394    81.150246    1392.7447  0.091433806  0.088257203   0.12330188   0.30299289  0.022755947  0.020950994  0.042283006  0.085989947 
  957000   -1798227.2    10493.134    563.23284    76.914057    88.813394    81.150246    1390.8988  0.091345307  0.088303965   0.12131938   0.30096865  0.021768505  0.021717751  0.041576972  0.085063228 
  958000   -1798211.6    10568.744    632.31351    76.914057    88.813394    81.150246    1400.9212  0.091278982  0.088693605   0.12133205   0.30130463  0.022843623  0.021222511  0.041114596   0.08518073 
  959000   -1798240.6    10554.739    1014.2978    76.914057    88.813394    81.150246    1399.0647  0.090937517  0.088308409   0.12154562   0.30079155  0.022272468  0.021191364  0.040392685  0.083856518 
  960000   -1798260.2    10507.852    430.86198    76.914057    88.813394    81.150246    1392.8497  0.091023935   0.08884234   0.12094709   0.30081336  0.022306492  0.021152106   0.04067646  0.084135058 
  961000   -1798283.1    10508.296   -101.91497    76.914057    88.813394    81.150246    1392.9086  0.091515268  0.087556184   0.12035918   0.29943063  0.023215829  0.020764472  0.040785914  0.084766215 
  962000   -1798272.3    10589.496    272.32425    76.914057    88.813394    81.150246    1403.6719  0.091725676  0.088767735   0.12152505   0.30201846  0.022276359  0.021649486  0.041074761  0.085000605 
  963000   -1798239.6    10620.719    709.79671    76.914057    88.813394    81.150246    1407.8106  0.091962341  0.088091148   0.12219634   0.30224983   0.02267521  0.020790982  0.041279921  0.084746114 
  964000   -1798273.4    10566.596    754.92661    76.914057    88.813394    81.150246    1400.6364  0.090666662   0.08856333   0.12111841   0.30034841  0.021961081  0.021124884  0.040280475  0.083366441 
  965000   -1798246.9    10495.736    443.38781    76.914057    88.813394    81.150246    1391.2437  0.091589593  0.088864448   0.12295527   0.30340931  0.022274373  0.021046151  0.040796274  0.084116798 
  966000   -1798247.7    10562.586    666.62092    76.914057    88.813394    81.150246    1400.1049  0.091064201  0.088591069   0.12112893    0.3007842  0.022755267  0.020418431  0.040691105  0.083864804 
  967000   -1798192.8    10569.783    576.44478    76.914057    88.813394    81.150246    1401.0589  0.091070931  0.088699694   0.12212203   0.30189266  0.021908468  0.021131279  0.040757916  0.083797663 
  968000   -1798214.3    10576.995    895.97735    76.914057    88.813394    81.150246    1402.0149  0.091547114  0.088289173   0.12295699   0.30279328  0.022363611  0.020818526  0.041458628  0.084640765 
  969000     -1798243    10546.442    430.15373    76.914057    88.813394    81.150246    1397.9649  0.091153165  0.089218226   0.12245628   0.30282767  0.021965255  0.020795216  0.041696677  0.084457148 
  970000   -1798324.7    10560.279    244.01364    76.914057    88.813394    81.150246    1399.7991  0.092615147   0.08887271   0.12388501   0.30537287  0.022573085  0.020882975  0.042291955  0.085748015 
  971000   -1798240.5    10492.293    434.21155    76.914057    88.813394    81.150246    1390.7873  0.092347841  0.088720564   0.12261696   0.30368536  0.022490687  0.021182276  0.042007465  0.085680428 
  972000   -1798279.1    10536.747   -41.007987    76.914057    88.813394    81.150246    1396.6799  0.092598745   0.08913995   0.12285719   0.30459589  0.022131055  0.020974199  0.041824592  0.084929846 
  973000   -1798239.4    10531.995    199.77894    76.914057    88.813394    81.150246      1396.05  0.092421968  0.089388729   0.12363694   0.30544764  0.022413308  0.021172724  0.040765225  0.084351257 
  974000   -1798249.4    10593.228    630.82104    76.914057    88.813394    81.150246    1404.1665  0.091268602  0.089376077   0.12341401   0.30405869   0.02152279  0.021134947  0.041265652  0.083923389 
  975000   -1798293.4    10554.781    141.05652    76.914057    88.813394    81.150246    1399.0703  0.092603053  0.088316789   0.12394103   0.30486087  0.022489931  0.020822004  0.040391016   0.08370295 
  976000   -1798271.6    10491.618   -256.04983    76.914057    88.813394    81.150246    1390.6978  0.092995906   0.08928101   0.12453393   0.30681084  0.022179228  0.021099013   0.04165988   0.08493812 
  977000   -1798254.3    10518.739   -129.68483    76.914057    88.813394    81.150246    1394.2928  0.092600581  0.089756668   0.12240571   0.30476296  0.021783833  0.020822455  0.040400768  0.083007056 
  978000   -1798308.2    10587.365    188.56329    76.914057    88.813394    81.150246    1403.3895  0.093134639  0.089508016   0.12363835     0.306281  0.021393299  0.020941237  0.040132426  0.082466962 
  979000   -1798220.8    10569.496    555.79195    76.914057    88.813394    81.150246    1401.0208  0.093024127  0.089479896   0.12297344   0.30547747  0.022713945  0.021501681  0.040675638  0.084891264 
  980000   -1798315.7    10555.646    255.11871    76.914057    88.813394    81.150246    1399.1849  0.091824924  0.090311478   0.12254209   0.30467849  0.022033019  0.020677551  0.040793847  0.083504417 
  981000   -1798280.1    10571.944    331.62148    76.914057    88.813394    81.150246    1401.3454  0.092588499  0.090376311   0.12450479    0.3074696  0.022113128  0.020850167  0.041709447  0.084672742 
  982000   -1798287.8    10540.474    289.73224    76.914057    88.813394    81.150246    1397.1739  0.094650657  0.089778544   0.12409083   0.30852003  0.022496271  0.021194838  0.041232911   0.08492402 
  983000   -1798266.9    10578.718     326.0371    76.914057    88.813394    81.150246    1402.2432  0.092406369  0.089562267   0.12447297   0.30644161  0.021923558  0.020800039  0.041742107  0.084465703 
  984000   -1798285.6    10569.017    565.84109    76.914057    88.813394    81.150246    1400.9574  0.093262082  0.090183241   0.12466057   0.30810589  0.022476134  0.021290249   0.04133036  0.085096742 
  985000   -1798316.1    10554.657    198.82861    76.914057    88.813394    81.150246    1399.0539  0.093288213  0.090392501   0.12322097   0.30690168  0.022213624  0.021162095  0.040456979  0.083832698 
  986000   -1798265.6    10492.766    142.16505    76.914057    88.813394    81.150246      1390.85  0.093063763  0.089811703   0.12413597   0.30701143  0.021953253  0.020893817  0.040537582  0.083384652 
  987000   -1798288.3    10512.728    242.00305    76.914057    88.813394    81.150246     1393.496  0.092590026  0.089932376   0.12356286   0.30608526  0.021642507  0.021300557  0.040927588  0.083870652 
  988000   -1798278.5    10532.326    311.46409    76.914057    88.813394    81.150246    1396.0938  0.092495698   0.09037302   0.12397983   0.30684854  0.022271676  0.020487736  0.040950573  0.083709985 
  989000     -1798292    10616.495    235.74963    76.914057    88.813394    81.150246    1407.2507   0.09242149  0.090781767   0.12331531   0.30651857  0.022296832  0.021134771  0.039832974  0.083264577 
  990000   -1798251.1    10570.833    5.8665308    76.914057    88.813394    81.150246    1401.1981  0.091791673  0.090782432   0.12452424   0.30709835  0.021779711  0.020694952  0.041334117  0.083808779 
  991000     -1798278    10515.762    328.90502    76.914057    88.813394    81.150246    1393.8982  0.093201842  0.091081271   0.12283901   0.30712213  0.022131809  0.021592992  0.040554237  0.084279039 
  992000   -1798247.7    10602.041    153.00284    76.914057    88.813394    81.150246    1405.3348  0.093829251  0.091254674   0.12442936   0.30951328  0.022636739  0.020975318  0.041587542  0.085199598 
  993000   -1798223.5    10544.721     557.4687    76.914057    88.813394    81.150246    1397.7368  0.093485589  0.091192747   0.12583941   0.31051775  0.022714567  0.021072108  0.041412925    0.0851996 
  994000   -1798224.5    10522.072    716.95138    76.914057    88.813394    81.150246    1394.7347  0.092801298  0.091223097   0.12520404   0.30922844  0.021850804  0.021188559   0.04127711  0.084316473 
  995000   -1798264.1    10602.672    712.42662    76.914057    88.813394    81.150246    1405.4185  0.091982764  0.090765959   0.12362134   0.30637006  0.021821107  0.020827233  0.040468918  0.083117258 
  996000   -1798213.3    10545.059    601.97636    76.914057    88.813394    81.150246    1397.7816  0.092497157  0.091742015   0.12413257   0.30837174   0.02196121  0.021943548   0.04171515  0.085619909 
  997000   -1798307.8    10566.249    181.42748    76.914057    88.813394    81.150246    1400.5905  0.093213868  0.090159691   0.12383535   0.30720891  0.021982781  0.020688479   0.04131039   0.08398165 
  998000   -1798269.9    10519.705   -99.430433    76.914057    88.813394    81.150246    1394.4209  0.093403891  0.091103141   0.12409224   0.30859927  0.022361685  0.021443937  0.040484143  0.084289765 
  999000   -1798279.5    10559.349    200.10616    76.914057    88.813394    81.150246    1399.6758  0.094289264  0.090721383   0.12517691   0.31018756  0.021873502  0.021112956  0.041496823  0.084483281 
 1000000   -1798293.4    10623.495     122.3389    76.914057    88.813394    81.150246    1408.1786  0.093315585  0.091420045   0.12459337     0.309329  0.021701346  0.021150069  0.042108624   0.08496004 
Loop time of 117463 on 15 procs for 1000000 steps with 58365 atoms

Pair  time (%) = 86917.8 (73.9959)
Kspce time (%) = 27102.6 (23.0733)
Neigh time (%) = 1096.85 (0.933786)
Comm  time (%) = 1669.6 (1.42139)
Outpt time (%) = 1.39595 (0.00118842)
Other time (%) = 674.718 (0.574409)

Nlocal:    3891 ave 3918 max 3835 min
Histogram: 1 2 0 0 0 0 4 1 1 6
Nghost:    18568.8 ave 18687 max 18436 min
Histogram: 3 2 1 0 0 0 3 3 0 3
Neighs:    1.50388e+06 ave 1.54262e+06 max 1.45296e+06 min
Histogram: 1 1 0 3 2 1 1 3 0 3

Total # of neighbors = 22558144
Ave neighs/atom = 386.501
Neighbor list builds = 17886
Dangerous builds = 0
