
variable      mytemp equal  1800
# ------------------- Configuration ---------------------
read_data	CrO.dat
  orthogonal box = (0 0 0) to (77.301 89.2602 81.5585)
  1 by 5 by 3 MPI processor grid
  reading atoms ...
  58365 atoms

mass		1  15.9994
mass            2  51.9961

# -------------------- FORCE FIELDS ----------------------
pair_style buck/coul/long 10.0 10.0
pair_coeff    * * 1e-30 1e-30 0.0
pair_coeff    1 2 1204.18 0.3165   0.0
pair_coeff    1 1 9547.96 0.21916  32.0

kspace_style    pppm 0.0001



##-------------------- energy minimization ---------------

#compute   aE   all pe/atom
#min_style  fire

thermo          100
thermo_style    custom step pe pxx pyy pzz pxy pxz pyz lx ly lz temp

minimize      1e-8 1e-8 1000 1000
WARNING: Resetting reneighboring criteria during minimization (../min.cpp:168)
PPPM initialization ...
  G vector (1/distance) = 0.308705
  grid = 72 80 75
  stencil order = 5
  estimated absolute RMS force accuracy = 0.00180213
  estimated relative force accuracy = 0.000125151
  using double precision FFTs
  3d grid and FFT values/proc = 58144 28800
Memory usage per processor = 12.4992 Mbytes
Step PotEng Pxx Pyy Pzz Pxy Pxz Pyz Lx Ly Lz Temp 
       0   -1799682.3   -135067.89   -133757.49   -29466.109    6.1317072    39.388853    76.595173       77.301      89.2602      81.5585            0 
      83   -1808294.3   -84909.514   -84971.629   -185038.56    36.932996   -9.5850176   -38.636215       77.301      89.2602      81.5585            0 
Loop time of 66.514 on 15 procs for 83 steps with 58365 atoms

Minimization stats:
  Stopping criterion = energy tolerance
  Energy initial, next-to-last, final = 
        -1799682.25738     -1808294.26063     -1808294.27869
  Force two-norm initial, final = 872.615 1.03103
  Force max component initial, final = 27.6423 0.162854
  Final line search alpha, max atom move = 0.0276424 0.00450168
  Iterations, force evaluations = 83 229

Pair  time (%) = 25.128 (37.7784)
Kspce time (%) = 35.4748 (53.3344)
Neigh time (%) = 0.129105 (0.194102)
Comm  time (%) = 2.50483 (3.76587)
Outpt time (%) = 0 (0)
Other time (%) = 3.27725 (4.92717)

Nlocal:    3891 ave 3946 max 3786 min
Histogram: 3 0 0 1 0 1 2 1 0 7
Nghost:    18548.7 ave 18753 max 18329 min
Histogram: 6 0 0 0 0 0 1 3 2 3
Neighs:    1.46765e+06 ave 1.51863e+06 max 1.40517e+06 min
Histogram: 1 0 2 1 3 1 3 1 1 2

Total # of neighbors = 22014812
Ave neighs/atom = 377.192
Neighbor list builds = 2
Dangerous builds = 0

## --------------------- system relax --------------------
#dump          1 all xyz 100 xyz/all.xyz
#dump_modify   1 element O Cr

velocity      all create ${mytemp} 4928459 dist gaussian
velocity      all create 1800 4928459 dist gaussian
fix           1 all npt temp ${mytemp} ${mytemp} 0.1 iso 0.0 0.0 2
fix           1 all npt temp 1800 ${mytemp} 0.1 iso 0.0 0.0 2
fix           1 all npt temp 1800 1800 0.1 iso 0.0 0.0 2
run      50000
PPPM initialization ...
  G vector (1/distance) = 0.308705
  grid = 72 80 75
  stencil order = 5
  estimated absolute RMS force accuracy = 0.00180213
  estimated relative force accuracy = 0.000125151
  using double precision FFTs
  3d grid and FFT values/proc = 58144 28800
Memory usage per processor = 10.2492 Mbytes
Step PotEng Pxx Pyy Pzz Pxy Pxz Pyz Lx Ly Lz Temp 
      83   -1808294.3   -59069.394   -59182.849   -159344.17    81.551326    47.834899    86.281605       77.301      89.2602      81.5585         1800 
     100   -1799879.7   -23307.934   -22495.849   -124835.94   -76.866032     201.2015   -155.12941    77.292058    89.249875    81.549066    688.10723 
     200   -1801285.8   -3391.0376   -3069.7995    -105896.2   -519.48986   -33.030773   -384.78877    77.043988    88.963426    81.287332    950.27553 
     300   -1800985.8    24917.772    24770.935   -81570.302   -63.837324    398.92144    35.433666    76.841308    88.729389    81.073489    1034.4791 
     400   -1800626.8     42451.76    42919.806   -67397.833    866.16824    529.44732    96.126908    76.727522    88.597999    80.953436    1138.6329 
     500   -1799832.7    49671.787    50009.627   -61201.576    428.34866    184.90805     853.8932    76.709532    88.577226    80.934456    1200.6626 
     600   -1799257.8     47076.45    48196.008   -63302.661   -591.25387    526.00482    376.96559    76.765925    88.642344    80.993955    1301.0229 
     700   -1798455.9    42193.157    43034.113   -67180.469    119.94938    542.95715    685.29078    76.850721    88.740258    81.083421    1378.0306 
     800   -1797700.4    39782.464    40210.999   -69498.851     263.0449    381.50463    807.38604    76.922056     88.82263    81.158685     1464.552 
     900   -1796960.4     39523.73    38701.376   -69547.026      186.244    588.31779   -50.304642     76.97161     88.87985    81.210968    1551.4006 
    1000   -1796315.9    38947.014    38405.562   -69901.063   -240.26774    295.30723   -590.78385     77.00983    88.923984    81.251294    1642.5227 
    1100   -1795630.9    39683.583    38759.807   -69872.808     446.0924    -414.1148    265.87388    77.045668    88.965366    81.289105    1712.2033 
    1200   -1795088.7     39695.47    39372.604   -70316.681   -13.748091   -7.9899451    125.34333    77.082422    89.007806    81.327884    1775.1235 
    1300   -1794602.9    37786.091    37952.722   -70756.642   -768.66905   -582.60625    -97.88175    77.118124    89.049031    81.365552    1806.2054 
    1400   -1794509.1     35964.24    35252.815   -73733.057    408.60285   -395.84695   -12.147805    77.145674    89.080843    81.394619    1832.0206 
    1500   -1794636.6    33877.852    33376.403   -74959.026    72.206755    95.017158   -671.83219     77.15678    89.093668    81.406337    1818.7203 
    1600   -1794910.2    33050.823    33635.805   -75629.731   -864.12318    367.55971   -944.66815     77.14838    89.083968    81.397474    1795.1975 
    1700   -1795031.9    34304.032    34869.631   -74717.054    466.85267   -145.45473   -79.682589    77.123461    89.055194    81.371183    1774.8681 
    1800   -1795001.7    37845.257    37539.165   -71945.147    733.31612    946.60657    879.49852    77.098109     89.02592    81.344435    1780.0889 
    1900   -1794936.1     39169.11    40647.491   -69527.943   -354.72672    654.90744    110.87744    77.089711    89.016223    81.335574    1811.0786 
    2000   -1794788.3    39990.544    38234.028   -70678.659   -542.83697    -63.18665   -350.54146    77.104203    89.032956    81.350864    1823.1798 
    2100   -1794742.7    36174.599    36536.978   -71885.327    600.21639    856.98396    219.80778    77.129666    89.062359    81.377729    1817.1338 
    2200   -1794781.5    33231.794     34614.07   -75191.979    472.11449    530.04324    350.38499    77.145324     89.08044     81.39425    1795.5012 
    2300   -1794906.9    33573.041    34115.195   -76171.669   -91.919827     422.6528   -3.9294633    77.141346    89.075845    81.390052    1786.2156 
    2400   -1795001.1    35277.514    35565.328   -74737.989    97.698171    152.28127   -256.97404       77.123    89.054661    81.370696    1795.0529 
    2500   -1794877.2    38486.827     38620.53   -71554.622    768.94715    284.26682     16.40451    77.104977     89.03385    81.351681    1797.0444 
    2600   -1794799.7    38612.362    39815.918   -72148.097    331.82338    880.29848    137.37239    77.102024     89.03044    81.348565    1808.4308 
    2700   -1794792.1    37716.131     38278.21   -72619.545    207.83919    525.67218   -547.71569     77.11362    89.043831      81.3608    1809.9898 
    2800     -1794831    35595.546    35666.295   -74056.833   -125.82411    487.69853    104.29337    77.128884    89.061456    81.376904    1799.1894 
    2900     -1794897    34722.431    35263.429   -74669.407   -291.92607    1019.0945   -175.46238    77.135252    89.068809    81.383623     1791.487 
    3000     -1794929    36058.254    34962.383   -73419.296   -434.13444   -136.85904    437.42156    77.129469    89.062132    81.377522     1796.222 
    3100   -1794878.7     37833.35    35883.165   -73617.121   -25.453299   -779.32005    462.28095    77.118683    89.049677    81.366141    1803.8113 
    3200   -1794853.7     37910.37    38117.153   -72360.911   -48.670934   -274.79537   -235.93859    77.111641    89.041545    81.358712     1814.278 
    3300   -1794817.3    37097.362    38130.275   -71740.244   -11.764318    91.329603   -216.63768    77.114642    89.045011    81.361878    1808.2224 
    3400   -1794907.6    37802.996    35703.338   -73396.269    32.277619   -542.30408   -171.16987    77.122595    89.054195    81.370269    1805.7543 
    3500   -1794946.7    35875.622    35127.082   -75084.385    194.12075   -31.334469   -246.86565    77.127536      89.0599    81.375482     1799.011 
    3600   -1794902.6    35515.694     35898.58   -74430.274   -212.60741   -190.35737   -1186.1055    77.125038    89.057015    81.372847    1793.6959 
    3700   -1794835.7    38016.729    36301.682   -73481.194   -68.819067   -280.56466   -634.63417    77.119074    89.050128    81.366554    1797.8483 
    3800   -1794792.4      38528.6     37940.95     -72244.1   -135.11428   -155.37376   -285.56554    77.116752    89.047447    81.364104    1805.2992 
    3900   -1794809.1    36975.897    36690.814   -74034.637    73.393503   -707.90429   -777.89683    77.120505    89.051781    81.368064    1807.9296 
    4000   -1794861.3    34916.024    36111.084   -73912.995    992.47496    380.88274   -835.71786    77.124353    89.056224    81.372123    1801.2324 
    4100   -1794856.5    36887.973    35500.583   -74369.476   -229.11075   -653.86155   -850.12879    77.123996    89.055812    81.371747    1787.5492 
    4200   -1794916.8    36727.079     36763.21   -73239.184   -122.41983    218.77184   -590.09181    77.119541    89.050667    81.367046    1796.2197 
    4300   -1794876.2    35541.536    37701.503   -72384.265    684.81989    678.07055   -858.58513    77.114585    89.044945    81.361818    1801.8204 
    4400   -1794775.2     38411.49    36654.803   -72413.616    361.94585   -535.94108   -200.92631    77.112759    89.042836    81.359891     1799.343 
    4500   -1794830.5    36650.567    38181.202   -72441.217   -13.502405    165.96656   -157.21958    77.117644    89.048477    81.365045    1808.1066 
    4600   -1794824.7    35008.004    35438.309   -73373.663   -1007.0212    524.59453     -361.369    77.125082    89.057066    81.372893    1797.0401 
    4700   -1794902.8    35505.273    35299.591   -73953.341    110.53227   -132.38082    850.92204    77.127834    89.060244    81.375797    1797.5115 
    4800   -1794889.1     34965.81    35513.209   -73685.258    928.81495    329.09593    354.89231    77.124192    89.056038    81.371954    1793.8721 
    4900   -1794871.7    36110.026    37832.033   -72570.821    56.372558    538.05155    101.46132    77.116464    89.047115      81.3638    1800.2122 
    5000     -1794819     37748.78    38214.959   -71658.086    135.15736   -637.79566    36.955432    77.113333    89.043499    81.360497    1803.2983 
    5100   -1794779.7    36207.485    38225.571    -72769.93    -173.6303    649.86698   -239.73696     77.11788     89.04875    81.365294    1799.6191 
    5200   -1794850.3    35783.003    36279.799   -74939.453   -916.50906    782.28696   -189.56945    77.125627    89.057695    81.373468    1802.3967 
    5300   -1794873.5    36286.524    34748.058   -74962.372   -407.55249    123.41151    465.19589    77.128837    89.061402    81.376855    1797.2033 
    5400   -1794874.7    35805.877    35871.997   -74019.415    300.84241     86.61212    134.25417    77.124461    89.056348    81.372237    1794.7862 
    5500   -1794853.8    37234.324    37173.817   -73251.109    236.84836   -473.43136    414.97486     77.11731    89.048092    81.364693    1796.1888 
    5600   -1794833.3    38200.184     37053.52   -72490.779   -122.12396   -268.16493    927.80144    77.113153    89.043292    81.360307    1800.1373 
    5700   -1794819.7    37322.565    38860.076   -72452.134    374.56448    498.57667    809.59816    77.115097    89.045536    81.362358    1801.0561 
    5800   -1794868.4    35805.198    36539.007   -73273.113    104.15976    123.66696    478.91881    77.123174    89.054862     81.37088    1804.1936 
    5900   -1794855.8    34959.437    35703.412    -73614.11   -233.90892   -288.43541    615.72301    77.128956     89.06154    81.376981    1796.8976 
    6000   -1794852.8    35958.447    36509.676   -73324.171    336.89899    830.11033    281.29469    77.127598    89.059971    81.375548    1794.8839 
    6100   -1794866.6    36108.632     36809.35   -74049.025   -189.29652   -413.19983    308.30526    77.120991    89.052342    81.368577    1799.5287 
    6200   -1794896.1    36638.398    38496.185    -72355.98    529.07089    840.17884    373.48023     77.11345    89.043634     81.36062    1807.0283 
    6300   -1794860.4      37115.8    37027.556   -72325.767    156.04288    826.00203     83.02694    77.112474    89.042507     81.35959    1802.7799 
    6400   -1794854.4    37800.521    36105.735   -73726.811   -1287.0122   -804.94051   -844.96198    77.116822    89.047528    81.364178     1797.762 
    6500   -1794868.6    37012.611    35518.932    -73901.82   -643.68475    -334.7093   -131.19064      77.1224    89.053969    81.370064    1796.1302 
    6600   -1794856.9    35989.765    36538.538   -73972.618   -508.29359   -392.05663   -422.18281    77.125273    89.057287    81.373095    1795.7845 
    6700   -1794838.7    36551.275    36174.658   -72844.615   -346.21995   -694.85018   -338.35753    77.123523    89.055266    81.371248    1798.2728 
    6800   -1794867.3    37231.811    36009.018   -73398.142   -551.48776    253.03792   -6.4971579    77.119967    89.051159    81.367496    1807.7651 
    6900   -1794855.2    36486.012    37770.727   -72745.424    442.59252    569.84371   -111.64752    77.118266    89.049196    81.365702    1805.7705 
    7000   -1794828.6    36435.616    36940.534   -72734.402     418.9819    432.47275    190.99184    77.120318    89.051565    81.367866    1796.1001 
    7100   -1794885.7      36453.3    35641.379   -73640.075    49.237129   -169.21596   -158.37023    77.122974    89.054631    81.370669    1796.4289 
    7200     -1794891    36151.027    36022.394    -73771.46    215.25866   -526.96303    476.44784    77.123035    89.054702    81.370733    1796.6755 
    7300   -1794872.2     36326.02    36097.906   -73322.957    355.23296   -126.46835    46.610532    77.119881    89.051061    81.367406    1800.7746 
    7400   -1794896.3     38475.61    36717.728   -73126.238   -48.481459   -342.61423   -57.907527    77.116333    89.046964    81.363662    1811.1611 
    7500   -1794793.3     36984.09    37539.686   -71931.013    603.30539   -705.73257   -69.184791    77.117434    89.048234    81.364823     1798.403 
    7600     -1794859    35855.201    36615.979   -73482.899   -321.89772   -308.19707   -158.30612    77.122066    89.053584    81.369711    1800.7779 
    7700   -1794915.5    35988.749    35139.537   -73272.315   -9.5307433   -1022.7473   -790.59907    77.124646    89.056563    81.372433    1801.3784 
    7800   -1794862.5    36213.171    35768.398   -73074.215    226.01505   -71.938685    1003.8558    77.123441    89.055171    81.371162    1792.8204 
    7900   -1794934.5     37298.31    36684.761   -73328.688   -287.18945   -1268.1133   -54.895841    77.119618    89.050757    81.367128    1807.5888 
    8000   -1794915.5    37306.867    36112.348   -72896.541    791.31305    -661.0556     639.8458    77.116913    89.047633    81.364274    1811.9403 
    8100   -1794851.4     36631.73    37362.555   -73169.179   -385.96339   -164.99728    198.56809    77.117066     89.04781    81.364436    1804.8949 
    8200   -1794792.8    36805.648    36191.742   -73417.578   -372.14951    116.98906    627.07948    77.120204    89.051434    81.367747    1791.6312 
    8300   -1794859.7    36550.713     36471.22   -72863.345    813.99821    527.53967   -305.15151    77.122094    89.053615     81.36974    1793.8861 
    8400   -1794868.4    35810.737    35535.283   -72703.284   -199.61216    512.97488    235.67231     77.12185    89.053334    81.369483     1794.497 
    8500   -1794948.3    36329.578    35614.129   -72635.273   -950.70387     485.5614    46.329227     77.11956    89.050689    81.367066    1809.3072 
    8600   -1794894.3    35789.511    37036.836   -72722.917    19.817111    997.78161   -305.70659    77.117497    89.048307     81.36489    1807.1669 
    8700   -1794826.5     36871.43    36638.947   -73112.605   -537.42068    780.26493   -367.91576    77.117824    89.048684    81.365235    1799.5422 
    8800   -1794869.2    37143.838    36507.269   -72556.448    192.40183   -421.82885   -178.40519    77.119864     89.05104    81.367387    1802.5644 
    8900   -1794865.3    37051.776    36482.136   -73073.602   -11.020456   -500.76772    305.90406     77.12117    89.052549    81.368766    1797.1017 
    9000   -1794852.8    36528.411    36125.789   -73868.202   -342.60083    330.71528   -802.11538    77.121274    89.052668    81.368875    1792.5223 
    9100   -1794879.4    36776.333    36742.483   -72925.374    -148.1761    115.56574    525.17651    77.118711     89.04971    81.366172    1799.2005 
    9200   -1794851.8    36535.405    35856.386   -72603.582   -158.12706    372.55262    19.204503    77.116106    89.046701    81.363422    1800.7177 
    9300   -1794837.4    37077.023     37134.66   -72406.334     311.9089    534.88416    31.078061    77.116602    89.047274    81.363946    1801.0848 
    9400   -1794898.4    35991.557    36556.707   -73324.654   -514.64356    239.33808   -256.66102     77.12132    89.052722    81.368924    1806.9671 
    9500   -1794860.6    36271.349    36371.633    -73304.84    202.85689    84.441554   -249.07528    77.125016    89.056989    81.372823     1796.638 
    9600     -1794840    36057.553    36456.312   -73340.176   -136.84417    177.05344    52.955926    77.124392     89.05627    81.372165    1791.8748 
    9700   -1794903.2    37354.952    36169.324   -74390.829    193.74085    13.083918     245.4202    77.119922    89.051107    81.367449     1802.559 
    9800     -1794870    37058.718    37684.822   -72802.467    1071.9215   -192.21121    795.74391    77.115005    89.045429    81.362261    1801.2099 
    9900   -1794824.7    38622.844    37817.191   -72437.923    674.71094   -648.54036    47.253279    77.114897    89.045305    81.362147    1796.6698 
   10000   -1794940.4    36545.104    36473.923    -72736.21   -183.78005    -785.6234    40.576844    77.119922    89.051107    81.367449    1811.5269 
   10100   -1794885.1    35232.477    35542.789   -74016.502    21.293801   -406.30439    471.87932    77.125126    89.057116    81.372939    1800.9985 
   10200   -1794851.3    35905.786    35827.661   -73842.422     518.6553   -646.41046    342.09695    77.125599    89.057662    81.373438    1794.2662 
   10300   -1794889.6    37078.636    35706.557   -74179.225    452.58972   -672.10097    61.954119    77.122471     89.05405    81.370138    1801.0357 
   10400   -1794814.4    36653.991    37265.199   -73054.708   -443.12681    41.485846    758.33176    77.117921    89.048797    81.365338    1793.9895 
   10500   -1794875.8    36164.003     37927.36   -72773.842    264.14503    -7.172869    159.01219    77.115755    89.046296    81.363052    1803.7238 
   10600   -1794919.8    36493.645    36183.926   -72549.047    121.49252    856.88119      348.545    77.117146    89.047901    81.364519    1807.0512 
   10700   -1794878.5    35854.078    36597.028   -72859.027   -422.94376    699.45714   -374.67024    77.120633    89.051928    81.368199    1797.7765 
   10800     -1794887     35965.52      36927.3   -72771.717   -1333.9157    561.45509    347.33453    77.122986    89.054645    81.370681     1798.382 
   10900   -1794863.5     35895.34    36070.139   -72921.516    614.48212   -143.22388   -595.35679     77.12211    89.053634    81.369757     1797.671 
   11000   -1794877.5    36888.745    36229.655   -73334.493    153.89452    197.85933   -66.615995    77.118784    89.049793    81.366248    1803.5459 
   11100   -1794917.5    36601.651    36952.961   -73349.248   -863.68666   -424.39432   -578.74031    77.115897     89.04646    81.363202    1810.1496 
   11200   -1794926.7    38414.996    36496.863   -73077.736    778.42252   -353.64865    146.38687    77.114947    89.045362    81.362199    1806.9702 
   11300   -1794902.8    36349.757    37218.949   -73094.501    919.02732    113.74687    741.06087    77.118392    89.049341    81.365834    1798.2353 
   11400   -1794863.7      36298.7    35659.194   -72755.778    -596.7315   -421.57439   -683.44655    77.122995    89.054656    81.370691    1792.8882 
   11500   -1794893.3    35704.707    36426.027   -72482.691   -630.14511    147.27502   -146.24981    77.123947    89.055756    81.371696    1802.3996 
   11600   -1794824.3    36751.924    36624.986    -73054.66    439.26563    482.11404    -211.8681    77.122158     89.05369    81.369808    1798.6598 
   11700   -1794902.3    36393.032    37340.274   -73126.417    -52.85051   -705.83721    92.713572    77.119983    89.051178    81.367513    1810.6073 
   11800     -1794869    35781.052    37081.216    -73474.51   -838.84569    1018.2582   -508.78587    77.119865    89.051042    81.367389    1800.7624 
   11900   -1794844.5    36665.079    36127.443   -73052.688    205.40151    1037.6093    436.63897    77.120605    89.051897     81.36817    1790.8053 
   12000   -1794895.3    35649.239    36728.806   -73598.358    560.19614    340.85499    113.59392     77.12041    89.051672    81.367964     1796.112 
   12100   -1794890.3    37678.834    37059.124    -73367.99    703.11375    548.93757    67.522512    77.119903    89.051085    81.367428    1799.9884 
   12200   -1794903.4    36048.784    36574.234   -73433.394   -389.36262   -156.76089    360.25885    77.120915    89.052254    81.368496    1808.5974 
   12300     -1794897    36071.669    36673.262   -73555.071     125.2205    553.84805   -326.57163    77.122625    89.054228      81.3703    1809.9362 
   12400   -1794843.3    36350.134    37186.913    -73529.93   -2.7860591    20.356469   -201.28687    77.124374    89.056248    81.372145    1798.4335 
   12500   -1794911.7      35364.4    36336.538    -73642.69    516.74008    388.87499    919.11774    77.124443    89.056329    81.372219    1801.8859 
   12600   -1794885.1    36330.934    35858.301    -73659.42   -17.101109   -68.944193    -245.9209    77.120482    89.051755     81.36804    1796.9108 
   12700     -1794820    37214.143    37781.708   -72289.839   -65.993478   -318.09739    823.80998    77.115565    89.046077    81.362852     1791.197 
   12800   -1794841.5    37461.157    37020.544   -72315.427    210.68487    63.886605    654.84964    77.114548    89.044903    81.361779     1798.828 
   12900   -1794846.7    36316.105    37573.333   -72888.241   -138.37323    363.65485     401.1847    77.118467    89.049427    81.365913    1801.0862 
   13000   -1794880.2    35440.939    37950.472   -73771.103   -482.41926   -76.867692   -192.39218    77.124328    89.056195    81.372098    1802.4915 
   13100   -1794824.1    35584.483    36194.122   -74061.217   -10.259504   -37.172798    429.25298    77.127467     89.05982    81.375409    1791.7507 
   13200   -1794872.9    37248.656    35561.615     -73875.2    -211.9106    530.84648    335.06829     77.12465    89.056567    81.372437    1797.2398 
   13300   -1794892.2    36904.369     36511.37   -73397.031   -39.853537    -159.0976   -79.535401    77.118581    89.049559    81.366034    1801.0191 
   13400   -1794903.3    37433.139     37235.07   -72871.252    128.43305   -257.50139   -363.83974    77.112827    89.042915    81.359963    1804.0851 
   13500   -1794879.8    37245.206    37061.269   -72749.736    373.20207   -259.56812   -288.39745    77.113697    89.043919    81.360881    1801.9402 
   13600   -1794888.1    36647.657     35821.87    -73594.56    645.81363   -398.60025    26.250573    77.120225    89.051458    81.367769    1801.3153 
   13700   -1794845.9    34917.128    36518.457    -73607.98     472.5788    563.40104    987.57432    77.126474    89.058673    81.374361    1793.0732 
   13800   -1794829.4    35246.534    35306.402   -72621.916    208.76616    445.34645    275.83375    77.127463    89.059815    81.375405    1792.3211 
   13900   -1794835.9    35253.357    36990.225   -72314.557   -189.37242    1124.5211    46.016582    77.120918    89.052257    81.368499     1797.541 
   14000   -1794882.2    37330.979    36976.168   -72080.989    -432.6834   -7.4498569    -262.0998    77.112427    89.042453    81.359541    1804.6938 
   14100     -1794889    37865.074    37232.688   -70959.851    242.60488    366.55439   -237.05227    77.109506     89.03908    81.356459    1800.8742 
   14200   -1794887.5    36463.064    37790.429   -71422.757   -208.18116     962.1981   -946.97506    77.114503     89.04485    81.361731    1795.5771 
   14300   -1794918.3    35695.899    35021.057   -72913.863   -696.69404   -346.62833   -381.31314     77.12344     89.05517    81.371161    1798.9112 
   14400   -1794829.5    36661.513    35620.315   -72518.749   -356.40187   -271.16951    -58.38492     77.12827    89.060747    81.376257    1793.5554 
   14500   -1794876.3    35675.534    35098.774   -73857.357   -205.50454    -208.9019   -504.10897    77.128374    89.060868    81.376367    1806.0878 
   14600   -1794908.6    37100.301    35636.879   -73145.309    47.677065   -409.16626    104.52135    77.123498    89.055236    81.371221    1812.6987 
   14700   -1794827.1    36822.739    36574.069   -71877.834    402.89394   -379.27014   -375.98128     77.11728    89.048057    81.364662    1797.6956 
   14800     -1794901    38254.926    36317.939   -72174.248    -312.6083   -490.93187   -188.02255    77.112086     89.04206    81.359182    1798.9589 
   14900   -1794904.3    37301.937    37998.101   -72440.097   -344.24222   -55.762545     215.6293    77.111223    89.041062     81.35827    1792.1765 
   15000   -1794921.3    37756.968     36595.06   -73766.534   -446.53729    218.91347   -97.005166     77.11502    89.045447    81.362276    1795.5843 
   15100   -1794850.9    36055.223    36296.332   -74012.627   -81.300039   -133.68152   -135.73671    77.120458    89.051726    81.368014     1795.806 
   15200   -1794823.3    37005.633    36034.759    -73796.83   -571.64802   -567.38385   -371.29594    77.124669    89.056589    81.372457    1803.4924 
   15300   -1794865.3    37497.432    35037.139   -73058.004   -14.619994   -539.66754   -39.628147    77.127052    89.059341    81.374972    1811.5415 
   15400   -1794882.2     36696.01    36313.118   -73234.121    1121.5502   -143.48573    409.83837    77.125132    89.057123    81.372946    1804.6322 
   15500   -1794884.4    36226.372    37048.208   -72905.435    157.20151    351.49808    566.88876    77.119867    89.051044    81.367391    1793.0554 
   15600   -1794989.1    36488.564    36459.367    -73860.49   -234.58225    212.42159   -211.34985    77.113223    89.043372    81.360381    1802.8425 
   15700   -1794932.6    37410.434    38097.519   -72797.239    381.67466   -40.678698    -221.5991    77.106885    89.036054    81.353694    1801.1963 
   15800   -1794909.9    37093.922    38627.558   -71937.225    886.13227    326.01133   -547.13924    77.106869    89.036035    81.353677    1808.5965 
   15900   -1794868.2     36750.65    36999.078   -72582.972   -340.05171   -189.53701     666.1168    77.116737    89.047429    81.364088    1807.2835 
   16000   -1794898.7    36523.346    33710.926   -73256.601   -521.52488   -1031.4472   -250.63812    77.129843    89.062563    81.377916    1807.6039 
   16100     -1794875    34749.613    33883.056   -75321.272   -238.44195    138.09955   -478.92086    77.136219    89.069925    81.384643    1796.9993 
   16200     -1794888      35298.4    34218.855   -74486.749    568.69043    149.93295   -135.55701    77.129281    89.061915    81.377324    1795.6186 
   16300   -1794899.7    36863.354    37243.929   -71689.779    5.2513206   -282.66401   -243.11706    77.112828    89.042916    81.359964    1801.0784 
   16400   -1794933.9    37498.692    38435.988   -71014.633    -34.50683   -171.53878    122.97191    77.100734     89.02895    81.347203    1809.3717 
   16500     -1794895    37446.076    38524.604   -69857.567    135.45613   -62.484379    1106.8909     77.10295     89.03151    81.349542    1803.2423 
   16600   -1794866.9    37051.338    36317.318   -72632.053    264.33288   -18.696168    332.19785    77.119158    89.050225    81.366642    1795.4444 
   16700   -1794896.4    33680.221    35346.702   -74355.506    253.06529    411.92025   -90.067322    77.137054     89.07089    81.385524    1798.5278 
   16800   -1794827.6    34261.862    33833.858   -75010.454   -429.66062   -524.47923    58.189898    77.141538    89.076067    81.390255    1793.7048 
   16900   -1794792.6    35755.829    35173.418   -73578.558    672.83755   -782.83064    979.04367    77.129037    89.061633    81.377066    1795.6022 
   17000   -1794830.6    37859.199     37294.22   -71451.396   -223.98582   -653.56339    -19.15506    77.111022    89.040831    81.358059    1802.9257 
   17100   -1794904.4    37739.227    39062.033   -71143.312   -215.35242   -21.657166   -1171.7422     77.10049     89.02867    81.346947    1805.0123 
   17200   -1794898.3    38404.244    37588.318   -71892.175    268.20856    372.50743    6.2757927    77.103284    89.031895    81.349894    1792.2489 
   17300   -1794913.2    36404.142    37101.822   -72719.753    -911.4255   -261.66451   -235.37029    77.116229    89.046843    81.363552    1790.1642 
   17400     -1794919    34366.105    35427.195   -74546.433   -197.27225    483.34706   -311.54649    77.130374    89.063176    81.378476    1798.7873 
   17500   -1794845.9    35291.326     35212.13   -73934.145   -61.385752   -336.49774   -448.87124     77.13567    89.069292    81.384064    1803.1584 
   17600   -1794791.1    35524.978    35746.856   -74280.063    292.41683    352.59527    236.52894    77.131971    89.065021    81.380161    1806.5597 
   17700   -1794814.8     35565.68    36942.201   -72804.709   -565.12528    288.94772   -987.62249    77.122699    89.054314    81.370379    1805.5229 
   17800   -1794916.4    36041.448    36695.299   -72081.238   -343.28971   -17.882879   -415.78023    77.112559    89.042606    81.359681    1802.6913 
   17900   -1794988.9    37895.092    37636.757   -71799.517    79.862933   -78.861475    192.51272    77.105393    89.034331    81.352119    1797.6754 
   18000     -1794911    38363.857    37370.164   -72153.795   -949.14649     424.8361   -941.44723    77.105165    89.034068    81.351879    1786.2338 
   18100   -1794855.7    37485.791    37522.172   -71829.473    69.486655     101.0153   -547.05401     77.11259    89.042641    81.359713    1791.8182 
   18200   -1794848.5    35951.859    35817.275   -73087.195    -186.0115    338.00371   -135.66587     77.12466    89.056579    81.372448    1806.1688 
   18300     -1794829    35122.909    35588.317   -73787.215    65.455972    941.10733   -350.88075    77.134641    89.068104    81.382979     1810.815 
   18400   -1794824.6    35179.172     34690.32   -74920.816   -648.33171     651.2201   -717.58483    77.136299    89.070019    81.384728    1803.9313 
   18500   -1794831.3    35476.886    36336.003   -74210.125    281.56847    748.05985   -620.79936     77.12681    89.059061    81.374716    1791.0761 
   18600   -1794908.5    36753.934    37374.086   -73044.805   -437.46839    241.91085   -899.84863    77.110664    89.040418    81.357681    1790.5177 
   18700   -1794949.4    38519.565    39125.711   -72117.704    0.8017817   -168.07617   -627.00097    77.097676     89.02542    81.343978    1794.7776 
   18800   -1794917.3     39369.61    38739.276   -72060.554   -151.66171   -601.92034   -576.01031    77.099016    89.026967    81.345391    1798.9388 
   18900   -1794896.6    37059.666    37084.466   -72828.402    197.98215    207.64251   -678.35899    77.114904    89.045313    81.362154    1807.0023 
   19000   -1794795.2     35590.41    35359.279    -74798.37   -202.27353    225.39895   -759.34774    77.134874    89.068373    81.383224    1800.1421 
   19100   -1794790.1    33676.346    34798.038   -74986.651   -164.62965   -20.013081   -2.1100114    77.144609    89.079613    81.393495    1798.2439 
   19200   -1794864.8    34727.784     34490.82   -74240.706   -199.94457   -77.615872   -739.61603    77.137092    89.070933    81.385564    1801.2149 
   19300   -1794884.6    37138.783    36240.633   -73637.295    702.13767   -439.81258    438.54361    77.116741    89.047434    81.364092    1796.8866 
   19400   -1794911.1    38533.114    38953.853   -71413.783    8.1331684   -338.99238   -169.32153    77.097625    89.025361    81.343924    1797.4067 
   19500   -1794887.1    39216.331    39865.252   -71033.727    554.43693    340.99063     328.7257    77.093859    89.021012     81.33995    1793.9023 
   19600   -1794919.1    38551.421    37162.497   -72121.818   -433.51243   -89.185975   -58.286413    77.107792    89.037101    81.354651    1800.4315 
   19700   -1794851.8    36212.143     34968.24   -74911.838    904.76318     1116.653    81.604937    77.129368    89.062014    81.377415    1796.3527 
   19800   -1794856.8    32800.699    34429.539    -76426.91   -287.24658   -339.49586   -42.745713    77.143185    89.077969    81.391993    1803.1571 
   19900   -1794841.4    34841.495    34343.895   -75532.546   -1141.2084    7.2500321   -399.63653    77.140423     89.07478    81.389079    1804.5737 
   20000   -1794816.2    37022.525    35744.235   -73744.082   -388.78942    26.456668    596.12273    77.123972    89.055784    81.371722    1798.4664 
   20100   -1794880.3    37753.913    38799.001   -71899.005     128.7691   -743.54364    464.37395    77.105217    89.034128    81.351934    1798.3694 
   20200   -1794944.5    38101.263     39830.81   -71590.995    58.541488   -277.05735    460.63689    77.097563     89.02529    81.343859    1797.3244 
   20300     -1794935    37828.786    37599.695   -72628.014   -626.62703    107.89141   -203.11451    77.104546    89.033353    81.351226    1792.8874 
   20400   -1794946.7    36480.715    35128.185   -73277.547    275.60982   -775.13475    278.37866    77.119271    89.050355    81.366761    1801.2309 
   20500     -1794875    35915.968    35200.985   -73562.079      776.293    -384.3478   -4.1983586    77.131919     89.06496    81.380106     1804.474 
   20600   -1794807.9    34900.549    34042.684   -73747.405   -387.30752   -293.57792    66.770306    77.137232    89.071095    81.385712    1805.6067 
   20700   -1794806.5    36788.465     34342.31   -73046.777   -396.55952   -1195.6136    121.31057    77.132898    89.066091     81.38114    1804.6595 
   20800   -1794820.7    36768.851    36288.231   -72417.358    -497.2785     -176.461   -28.154652    77.123365    89.055084    81.371082    1795.2733 
   20900   -1794928.9    37354.866    37363.723   -72102.837    328.29577   -316.00697    56.456759    77.112961     89.04307    81.360105    1796.2268 
   21000   -1794918.7    38082.556    37275.801   -71531.938   -440.09288    -321.3736   -420.15895    77.106426    89.035524     81.35321    1790.2137 
   21100   -1794887.9    38072.309    37253.438    -71942.81   -722.01258   -331.66365    25.846091    77.107846    89.037163    81.354708    1793.0394 
   21200     -1794848    36883.842    37920.013   -72535.481   -92.446434   -468.06226   -364.57035    77.116915    89.047636    81.364277    1799.8149 
   21300     -1794885    35364.957    35380.415   -73768.065    18.873693   -120.31798    309.20655    77.128409    89.060907    81.376403     1812.227 
   21400   -1794838.6     35261.98    35998.754   -73574.539    422.53488     -273.006    131.60491    77.133854    89.067195    81.382148      1805.08 
   21500   -1794855.6     34571.82    35071.304    -74264.71    323.54392   -0.1413144    784.06473    77.130117     89.06288    81.378206    1798.2483 
   21600   -1794972.6    35741.975    36195.013   -72966.954   -76.566819    585.93415   -1074.9212    77.118725    89.049725    81.366186    1806.3712 
   21700   -1794933.5    37351.651    37622.717   -72485.376    97.076217   -222.04323    415.23951    77.107789    89.037097    81.354647    1797.9906 
   21800   -1794912.1    38364.656    37731.864   -71647.722   -283.52951    371.80579   -728.03857    77.104026    89.032753    81.350678    1799.6372 
   21900   -1794877.5    36319.977    38329.899   -72032.574    -234.3798    610.11189   -36.240592      77.1097    89.039304    81.356664    1801.0688 
   22000   -1794896.2     36843.55    36269.493   -73916.281    139.30435   -132.65844    89.489777    77.121953    89.053452    81.369591    1807.3048 
   22100   -1794898.2    35275.002    35461.451   -74169.507   -177.99781    256.59839   -305.55354    77.133039    89.066254    81.381288    1806.7711 
   22200   -1794896.4    34429.641    35272.573   -74741.676   -158.25846   -2.2706485    73.111848    77.134391    89.067815    81.382715    1803.3137 
   22300   -1794857.5    35566.819    36144.518   -73424.731    458.84659   -166.62308    585.59808    77.124385    89.056261    81.372157    1796.2417 
   22400   -1794849.7    37994.049    37865.045   -72317.876   -111.03211   -315.62315   -253.51239    77.110822      89.0406    81.357848    1794.7781 
   22500   -1794872.3    38602.649    39064.348   -72101.476   -451.22777    -181.2375    331.45118    77.104316    89.033087    81.350984    1796.8852 
   22600   -1794883.6    37037.695    38414.915   -72783.341    17.244248   -154.92537   -61.510549    77.110927    89.040721    81.357959    1796.5494 
   22700   -1794875.8    35527.444    37153.093   -73191.114   -10.248709   -365.34562    286.06946    77.124325    89.056192    81.372095    1796.2234 
   22800   -1794874.8     35028.82    35477.315   -74244.663     77.88286    332.78211    305.81982    77.133976    89.067335    81.382276    1800.0026 
   22900   -1794844.2     34675.11    35192.627   -74420.166    271.03456    356.69716   -461.28579    77.134142    89.067527    81.382452    1800.9245 
   23000   -1794886.7     35937.75    35901.188   -73525.371    838.75838    -132.2019   -92.313569    77.125214    89.057218    81.373032    1809.6276 
   23100   -1794856.4    37464.369    36592.011   -72747.391   -367.27353   -110.84019   -213.59256    77.114657    89.045028    81.361894    1801.1036 
   23200     -1794912     37443.81    37922.636   -72139.528   -511.90509    425.31565   -194.47813    77.108205    89.037578    81.355087    1799.1202 
   23300   -1794926.1    38071.564    37245.937    -72073.95    359.40082    470.42906    51.042922    77.108226    89.037602    81.355109    1793.5369 
   23400   -1794949.4    35462.422    37796.404   -72461.472    747.29026     635.8111    438.77346    77.114902    89.045311    81.362152    1798.0496 
   23500     -1794862     35405.29    36005.199   -73090.929    305.53843    112.17231   -119.74714    77.123751    89.055529    81.371489    1796.8903 
   23600   -1794832.9    35211.925    35941.225   -73002.133    1015.8788    67.777996   -216.39171    77.129571    89.062249    81.377629    1803.7841 
   23700   -1794820.2    36008.309    35736.296   -73576.501     605.6263     407.5554    910.89689    77.130033    89.062782    81.378116    1804.8043 
   23800   -1794863.6    36235.609     36351.96   -73297.049    522.80914    66.157305    105.60483    77.125058    89.057038    81.372868    1803.1665 
   23900   -1794926.2    36078.114    36514.033   -72885.513   -14.516352    563.90283    368.13786    77.116632    89.047308    81.363978    1800.1696 
   24000   -1794902.1    36994.569    37524.996   -72278.432   -318.82017    834.16472    292.23646    77.110114    89.039782    81.357101    1790.4524 
   24100   -1794989.7    36924.776     37482.39   -73215.643   -10.598032    559.15116    452.95245    77.109147    89.038666     81.35608     1805.117 
   24200   -1794890.1    37157.258    37003.197    -72095.17    899.71225    87.805973    288.42075    77.113961    89.044224    81.361159    1801.6132 
   24300   -1794890.2     36531.35    36121.807   -73529.051    309.13607   -60.714383    31.489569    77.123113    89.054793    81.370816    1808.9057 
   24400     -1794882    34850.428    36107.228   -74465.652    -985.4227   -486.99798    90.696103    77.130917    89.063803    81.379049    1808.9472 
   24500   -1794840.3    35462.588    35562.367   -74070.588    678.98449   -75.369504    559.66752    77.131646    89.064645    81.379819    1797.4251 
   24600   -1794857.3    37042.814    35915.482   -72815.847    775.86876    464.70314    249.52672    77.123172     89.05486    81.370878    1792.5288 
   24700   -1794902.6    36188.662    37536.116   -72705.838   -1218.0541    126.35078   -393.05762    77.112146    89.042128    81.359244    1795.7995 
   24800   -1794924.8    38605.815    38311.363   -71810.883    -614.7714   -367.40655   -292.93098     77.10562    89.034593    81.352359    1801.6698 
   24900   -1794895.6    38090.557     38286.79     -71591.6    -24.98172    334.86904    293.58777    77.108617    89.038053    81.355521    1801.4731 
   25000   -1794861.6    36369.811    36735.592   -72894.477   -108.58872    66.377857    345.18462     77.12018    89.051406    81.367721    1799.5562 
   25100   -1794863.1     35583.46    35230.801   -73897.356    -155.8157     406.9249   -416.74576     77.13133     89.06428    81.379485    1799.0113 
   25200   -1794788.2    35695.899    34930.625   -74664.896    193.56658    142.87553    242.66023    77.134128    89.067511    81.382437    1788.8757 
   25300   -1794812.6    35816.873    35356.046   -73470.266   -116.95098   -12.443893    -85.97316    77.126469    89.058667    81.374356    1792.9093 
   25400     -1794924    36671.182    36556.511   -73630.881   -132.12172    234.87114   -411.14344     77.11414    89.044431    81.361348    1806.9747 
   25500   -1794866.8    37914.294    37883.121   -71827.441   -180.62539   -16.679758   -112.45899    77.105238    89.034152    81.351956    1796.1778 
   25600   -1794926.2    38299.268    37275.321   -71525.894    6.7248284   -277.69472     204.0773    77.105454    89.034401    81.352184    1799.8011 
   25700   -1794966.8    36285.616    37090.188   -72482.002   -10.294927   -17.492075   -261.22587    77.113972    89.044238    81.361172     1801.429 
   25800   -1794877.4    35232.932    36344.067   -73283.503    823.94127   -14.493404    -283.8245    77.125069    89.057051    81.372879     1793.568 
   25900   -1794849.3    35596.449    34722.845   -74039.168    353.03101   -72.961731    585.57884    77.129786    89.062498    81.377856    1801.1869 
   26000   -1794797.4    36018.361    35525.397   -73905.934     397.5008   -241.54913    819.78289    77.126281     89.05845    81.374158    1800.3188 
   26100     -1794859    36432.989    36891.221   -72526.621    107.28714    137.66203   -149.14952     77.11861    89.049593    81.366065     1803.826 
   26200   -1794909.2    36678.838    37765.025    -73031.15    474.47223   -124.99762   -771.58977    77.111008    89.040814    81.358044    1793.4728 
   26300   -1794946.4    35995.449    37932.804   -71828.593   -465.25872    496.97207   -149.07202    77.107049    89.036243    81.353867    1796.7461 
   26400   -1794921.1    37449.312    37049.477   -72744.406    120.87406    383.37768   -137.64908    77.109993    89.039642    81.356973     1799.653 
   26500   -1794861.9    36165.069    36731.745   -73770.029    388.69647    237.76167    162.89411     77.11911     89.05017    81.366593    1800.2324 
   26600   -1794809.9    36406.657    36511.685   -73948.141   -401.04649   -154.19674   -106.07937    77.128343    89.060832    81.376334    1798.6835 
   26700   -1794859.3    34684.658    36480.139   -73818.437     556.3677    482.08111    168.09488    77.132555    89.065695    81.380778    1804.9259 
   26800   -1794904.9     34469.98    34779.999   -74236.365    527.56481    210.98809    5.1593111    77.128931     89.06151    81.376954    1799.0848 
   26900   -1794922.9     35818.56    36370.652   -72835.171    239.59017    294.52375   -198.47911    77.117139    89.047894    81.364513    1793.8285 
   27000   -1794900.8    37603.061    37874.133   -71557.336   -166.13532    277.35703   -110.34104    77.104759    89.033599    81.351451    1793.2466 
   27100   -1794835.8    38341.853     39398.07    -71158.11    1090.7016   -168.45352    576.95975    77.102819    89.031358    81.349404    1797.9852 
   27200     -1794870    37907.488    36660.122   -72172.555    388.45134   -393.86007    41.373862    77.113987    89.044255    81.361187    1807.3755 
   27300   -1794955.9    35363.465    34466.514   -74353.449    73.286083   -957.83832   -631.99939    77.129829    89.062547    81.377902    1814.6149 
   27400     -1794917    33626.921    33764.502   -74967.105   -193.72776    146.16494    94.144599    77.137697    89.071633    81.386203    1806.0055 
   27500   -1794875.7    35368.269    34864.905   -74053.629    879.26954    428.40351    315.81866    77.130131    89.062896     81.37822    1799.4952 
   27600   -1794910.8    37459.933    37739.154   -72872.437   -687.99538    154.58112    96.727299     77.11298    89.043092    81.360125    1804.0967 
   27700   -1794884.9    38883.075    38025.845   -71029.471   -70.886176     112.9994    396.12839    77.099379    89.027387    81.345775    1796.1594 
   27800   -1795027.3    38039.046    36762.944   -71628.348    1244.7835   -409.09209    417.34877    77.099789     89.02786    81.346207    1804.3236 
   27900   -1794935.5    36645.139    36746.972   -72156.594    533.32649   -351.85145    469.17651    77.111802    89.041731    81.358881    1790.9222 
   28000     -1794879    35718.342     34675.66   -73998.551    410.78026   -76.061686    403.84892    77.127252    89.059572    81.375182    1796.4616 
   28100   -1794850.2    33945.859    35351.347   -73517.845   -77.550795   -114.90658    714.63012    77.135808    89.069451    81.384209     1800.715 
   28200   -1794855.9    35843.592    34883.386    -73329.95     1255.431   -533.86285    125.87115    77.133416    89.066689    81.381686    1803.0533 
   28300   -1794877.1    35387.084    36081.293   -73695.584    781.34918   -378.39621    777.43746    77.121927    89.053422    81.369564    1801.6598 
   28400   -1794941.2    37129.577    37268.802   -71088.146    965.98841   -532.09454     191.2797    77.108555    89.037982    81.355456    1793.9722 
   28500   -1794941.8    37740.822    38074.328    -70812.28    422.45904    385.22273    937.67019    77.102527    89.031022    81.349096     1789.326 
   28600   -1794968.2    36905.059     35709.88   -72559.024    942.93097   -683.16882    556.56642     77.10554      89.0345    81.352275    1800.5126 
   28700   -1794907.7     37611.78    36957.373   -72437.205    672.78149    313.64895    124.28902    77.114052    89.044329    81.361255    1800.1714 
   28800   -1794897.4    36584.016    36585.617   -73507.208   -31.420305      -718.15    63.863321    77.126178    89.058332     81.37405    1802.9604 
   28900     -1794861     34907.42     35454.88   -74894.169   -400.23101   -210.08273    680.77207    77.134191    89.067584    81.382503    1799.8704 
   29000   -1794859.2    35703.472    34579.084   -74199.777   -147.08023   -375.61594    2.7518392    77.131939    89.064984    81.380128    1800.2744 
   29100   -1794885.7    36412.179    36026.106   -73613.084    467.26583   -1090.2451    188.75161    77.120408    89.051669    81.367962    1800.1933 
   29200   -1794929.1    37200.892    37536.659   -71656.141   -401.57698   -644.09525   -403.27535    77.108005    89.037347    81.354875    1798.4046 
   29300   -1794899.3    38067.016    38275.955    -72349.53   -334.51134    -326.8923   -182.18823    77.102466    89.030951    81.349032    1790.5545 
   29400   -1794965.4    37504.905     38511.22   -71433.475    269.17037   -523.86552    467.67948    77.106025     89.03506    81.352786    1803.4449 
   29500   -1794896.4    36802.709    36554.597   -72484.731    128.73361   -247.67395   -717.76932    77.118388    89.049337    81.365831    1806.6687 
   29600   -1794863.6    34476.873    35618.045   -73549.632   -593.84795   -33.398479   -544.13719    77.131201    89.064132    81.379349    1808.6864 
   29700   -1794859.1    35650.732    34124.084   -74657.689    -7.645366    526.27806   -268.64366    77.135698    89.069325    81.384094    1804.0906 
   29800   -1794869.2    34855.971    35274.061   -74932.252    20.495617    624.64309    528.50152    77.129468    89.062131    81.377521    1798.2332 
   29900   -1794917.4    36702.906    37374.079   -72776.843   -292.23179    1.3751364   -978.40719    77.114902     89.04531    81.362152    1802.8338 
   30000   -1794917.8    38452.156    38411.898   -71563.889   -88.680985    15.311378   -262.26306    77.102625    89.031134    81.349199    1802.1558 
   30100   -1794968.3    38303.241    39411.388   -72003.939    156.71261   -13.142102   -85.660885     77.10204    89.030459    81.348582    1807.6901 
   30200   -1794920.9    37907.873    36686.691   -74223.666    -93.09925    191.08059      514.439    77.114409    89.044742    81.361633    1798.0376 
   30300     -1794915     35441.16    36473.665   -74856.439   -179.42249    786.23768   -256.16956    77.129206    89.061828    81.377244    1798.3837 
   30400   -1794820.1    34984.985    34241.554   -75110.954    398.64163    766.20043   -420.59594      77.1369    89.070712    81.385362    1798.1935 
   30500   -1794741.2    35804.785    35729.104   -74627.766   -277.40418    367.06964   -384.60465    77.132025    89.065083    81.380219    1794.3771 
   30600   -1794816.5    36717.019    36944.432   -72905.971    43.798087    253.10237   -441.47198    77.120661    89.051961    81.368229    1798.8566 
   30700   -1794875.7    37982.458    37304.041   -72204.237    337.61278    376.23781    110.56066    77.110256    89.039946     81.35725     1793.503 
   30800   -1794873.3    38125.141    37441.722   -71518.903    728.20852    474.85731    734.48826    77.106244    89.035313    81.353017    1791.6406 
   30900   -1794900.1    37838.415    37290.307   -72438.331   -1030.7317   -350.48105    -55.60078     77.11152    89.041405    81.358584     1798.047 
   31000   -1794830.5    36225.478    35876.974   -72930.196   -1.1035892    311.25953    105.64606    77.122539     89.05413     81.37021    1794.9593 
   31100     -1794832     35589.87    34370.741   -73428.191    128.08609    50.138341   -345.15482    77.132308    89.065409    81.380516    1806.3275 
   31200   -1794794.4    35321.279    35274.808   -73596.079   -193.49432    216.56287   -231.24528    77.134846     89.06834    81.383194    1809.0219 
   31300   -1794890.3    35507.541    34889.134   -74869.887    277.24431    440.54131    131.76007    77.128943    89.061524    81.376967    1808.9861 
   31400   -1794925.3     38114.27    35180.404    -74012.62    253.77632   -324.92902    -57.58003    77.117558    89.048378    81.364955    1800.7379 
   31500   -1794931.1    38445.069     38649.43   -73336.261   -548.28855   -141.96574    351.49873    77.107397    89.036645    81.354234    1798.8067 
   31600   -1794907.9    37366.112    39315.577   -72666.416     188.3758   -74.761141    300.38379    77.104937    89.033805    81.351639    1797.3607 
   31700   -1794873.1    38213.909    37180.286   -72305.868    115.74194   -973.07309    -42.55692    77.112062    89.042032    81.359156     1800.513 
   31800   -1794821.5    36876.514    36706.689   -73149.266   -134.27069    207.48438   -436.93016    77.124335    89.056203    81.372104    1802.8513 
   31900   -1794818.2    34518.334    35828.789   -74041.635    127.40393    212.34841    327.91174    77.134538    89.067985     81.38287    1803.3599 
   32000   -1794897.3    34782.033    34846.546   -74045.047    1089.6199   -1153.0096   -225.08315    77.135677      89.0693    81.384071    1797.5743 
   32100   -1794939.4    34474.964    35188.051   -73542.326   -179.68109    491.05716   -49.345559    77.124146    89.055985    81.371906    1797.3917 
   32200   -1794882.1    37742.395    37907.436   -70428.981   -212.41208    673.36569   -109.17207    77.108147    89.037511    81.355026    1794.3328 
   32300   -1794932.1    38995.552    39707.563   -70964.901    103.39855    172.86136   -94.286562    77.101055    89.029321    81.347542    1811.7927 
   32400     -1794898    37884.076    38342.346   -71385.393    557.73757    872.69018   -316.44029    77.108816    89.038284    81.355732    1810.9495 
   32500   -1794946.6     35802.63    35370.884    -74133.98   -694.96388    202.18343   -405.07418    77.125775    89.057866    81.373624    1802.2732 
   32600   -1794884.8    34715.296    33503.875   -74352.005    322.44101    272.48363     287.6895    77.137375     89.07126    81.385863    1785.6122 
   32700   -1794898.1    33610.471    36008.185    -74321.88    763.61902    620.13943    101.66915    77.133646    89.066955    81.381929    1796.5678 
   32800     -1794834    37280.059    36676.136   -71884.977   -289.26822    214.98189    49.877906    77.117734    89.048581    81.365141    1798.4704 
   32900   -1794876.6    38260.962    38841.631   -70701.651   -245.07217    -264.7767    326.53815    77.104245    89.033005    81.350908    1804.5087 
   33000   -1794993.3    36879.167    37999.646   -71859.648    364.19379    652.27318    657.00901    77.103432    89.032066    81.350051    1812.3122 
   33100   -1794979.4    36790.607    36417.805   -72727.946   -12.312857    205.70297    498.08676    77.111692    89.041604    81.358766    1798.2372 
   33200   -1794956.9    36467.554    35466.136   -73696.729   -78.698032     227.3026    59.671895    77.121576    89.053017    81.369194    1796.4941 
   33300     -1794911    36002.782    35106.471   -73474.038    171.04749   -768.03805   -41.985194    77.126567    89.058781     81.37446    1796.9666 
   33400   -1794857.8    36476.962    34962.173   -73237.165   -94.246458   -308.30039   -186.29016    77.124535    89.056435    81.372316    1798.2071 
   33500     -1794880    35619.286    36745.583   -72976.201   -827.41639    326.99497   -491.69584    77.118398    89.049348    81.365841    1806.6439 
   33600   -1794840.4    37464.058    37458.566   -71799.347   -488.72423    238.43577    -625.0437     77.11431    89.044627    81.361527    1799.4593 
   33700   -1794927.8    35643.786    36668.123   -72321.993    -667.9961   -239.53191   -85.910568    77.114568    89.044925    81.361799    1793.6168 
   33800   -1794960.8    37127.037    35836.612   -72803.435    -1051.697    -192.8347    -1144.266    77.115041    89.045472    81.362299    1795.0161 
   33900   -1794917.2    36155.447    36856.026   -72262.409   -190.50154    774.43783   -564.26867    77.115822    89.046373    81.363123    1798.7104 
   34000   -1794908.9    36129.218    36346.599   -72688.605    91.120644   -243.80808    499.02482    77.118814    89.049828     81.36628    1806.2623 
   34100   -1794894.3    36684.135    36819.263    -73510.14    -405.9913    626.08526   -151.77154    77.123706    89.055476    81.371441    1805.3933 
   34200   -1794867.3    35724.877    36543.349   -72917.987   -535.06472    893.15286   -143.55219    77.126064      89.0582    81.373929    1799.3006 
   34300   -1794903.8    36996.723     36039.47   -74484.343   -25.089491   -70.735432    -475.3651    77.124425    89.056308      81.3722     1800.452 
   34400   -1794927.9    36325.489    36676.305   -72976.546   -43.161504    64.787637   -731.80124    77.118934    89.049967    81.366406    1789.9545 
   34500   -1794957.6    37076.857    37313.518   -72919.603   -591.28752    38.707716   -622.22155    77.110762     89.04053    81.357784    1787.4505 
   34600   -1794993.3    38569.922    37154.372   -71748.472   -499.99398   -544.14928   -24.980206    77.105504    89.034459    81.352237    1804.2248 
   34700   -1794911.7    37409.962    37424.792   -72575.743   -179.96193   -70.927636    529.68091    77.109812    89.039433    81.356782    1801.3162 
   34800   -1794903.5    35300.034    36283.519   -73207.627    760.20548   -372.69462    685.59228    77.120617     89.05191    81.368182    1803.2362 
   34900   -1794900.1    35389.754    34717.924   -73649.563    491.16287    492.25134    113.70082    77.129895    89.062623    81.377971    1804.4957 
   35000   -1794846.9    35670.808    33745.051   -74219.769   -314.16956   -464.81361    96.919369    77.130809    89.063678    81.378935    1799.2531 
   35100     -1794850    35608.565    36787.228   -72848.055    657.41932    30.116969   -306.37326    77.122352    89.053913    81.370013    1801.3404 
   35200   -1794849.9    36709.767    37758.333   -71467.464   -511.62122    922.49104   -308.08672    77.111987    89.041945    81.359077    1796.9285 
   35300   -1794863.3    37428.497    37182.694   -71354.678    276.20354    867.67572   -180.72328    77.106351    89.035437     81.35313    1788.4082 
   35400   -1794911.3    37956.623    36925.346   -72786.961    30.532571   -1175.6633   -744.12152    77.108134    89.037496    81.355012    1791.0385 
   35500     -1794886    36724.512    37007.948   -72227.526    -833.7332    121.62902   -227.31991     77.11561    89.046129    81.362899    1796.0202 
   35600   -1794863.7    34923.858    36697.086   -74209.927   -520.95653    539.96597   -138.28242    77.125587    89.057649    81.373426    1808.1045 
   35700   -1794843.1    35283.538    35648.301   -74228.175    144.49293    747.16782   -647.03108    77.132487    89.065617    81.380706    1803.2892 
   35800   -1794817.6    35398.386    36072.884   -73524.555    -1281.416    398.67227   -260.35583    77.130985    89.063883    81.379122    1791.8566 
   35900   -1794967.2    34995.897    35736.049   -73107.616   -289.49526    230.95593    105.25934    77.121744    89.053211    81.369371    1804.0853 
   36000   -1794938.3    37148.735    38701.665   -72411.876    661.54982    162.10398    341.10729    77.108418    89.037824    81.355311    1789.9402 
   36100   -1795023.4    37318.404    38545.488   -72446.418   -821.98481    607.59571   -197.71137    77.100468    89.028644    81.346924    1787.8583 
   36200   -1794983.7    38387.055    37846.611   -72658.213    596.76959    211.15507   -212.69858    77.101912    89.030311    81.348447    1791.8361 
   36300   -1794966.9    37185.677     36413.67   -73065.673    371.06363    397.81319    -476.5367    77.112243     89.04224    81.359347    1801.4648 
   36400   -1794893.8    35587.848    35342.491   -74539.568   -825.65028   -404.10208   -476.18479    77.126412    89.058602    81.374296    1800.1716 
   36500   -1794844.9    35171.667    34654.884   -75211.918   -722.11689   -733.40366    -496.2266    77.134816    89.068306    81.383164    1800.9695 
   36600   -1794844.7    35117.081    35690.508   -74497.087   -288.82141   -308.29804   -311.10281    77.132588    89.065733    81.380812    1804.2581 
   36700     -1794795    36815.455    37952.548   -74075.048    839.92925   -392.51841     89.31286    77.122507    89.054092    81.370176    1792.5109 
   36800   -1794928.9    37802.092    37227.005   -73171.093    189.42641   -372.20417   -97.929404     77.11051    89.040239    81.357518    1794.8884 
   36900   -1794949.2    38133.648    38039.124   -72443.686    510.46243   -95.789832    300.11519    77.104146    89.032891    81.350804    1794.9314 
   37000   -1794924.2    36695.077    37650.311   -72047.777    -87.53122    427.15298    170.12565    77.107294    89.036526    81.354125    1798.5708 
   37100   -1794850.9    35912.103     36958.17   -73312.837   -440.61026    437.65278   -40.222441    77.117564    89.048385    81.364961    1799.3657 
   37200   -1794846.6    35867.752    35185.298    -73379.37     78.19677   -122.95712   -254.01824    77.129309    89.061947    81.377353    1801.2979 
   37300   -1794861.7    33777.984    35185.452   -73451.891    206.10345   -190.14129   -432.70486    77.134278    89.067685    81.382596    1801.5212 
   37400   -1794918.4    34805.845    35284.393   -73542.227   -461.48754   -67.750741    -348.6935    77.129022    89.061616     81.37705    1805.2557 
   37500   -1794924.7    37677.024    35665.055   -72460.299   -317.84767    301.15462    102.23743    77.116323    89.046952    81.363652    1800.0896 
   37600   -1794931.9    37749.019     37083.37   -71781.869   -937.12593   -281.12386   -82.113245     77.10579    89.034789    81.352539    1790.8024 
   37700   -1794995.7    37398.918    37921.358    -71807.48   -348.73028   -298.22439   -110.09382    77.104501    89.033301    81.351179    1790.7222 
   37800   -1794934.6    36256.018     36748.58   -72696.302   -476.31924     264.0646   -264.68994    77.110235    89.039922    81.357228    1793.7402 
   37900   -1794895.1    35113.989    36285.645   -72830.524   -218.67099   -339.65197    161.64429    77.119318     89.05041    81.366811    1801.1788 
   38000   -1794912.1    35029.803    35213.094   -73304.746    586.25757     382.1193    654.21597    77.127906    89.060327    81.375873    1806.9403 
   38100   -1794865.5    35494.823     35434.55   -74200.546   -1041.1132      372.991    237.64145    77.130522    89.063348    81.378633    1802.0899 
   38200   -1794861.2    36499.152    35412.388   -73854.091   -51.106474   -499.15707    456.60689     77.12606    89.058195    81.373924    1798.6906 
   38300   -1794936.1    36520.769    36492.602   -73325.618    298.06316    212.53471   -657.14649    77.117808    89.048666    81.365218    1798.7073 
   38400   -1794982.8    36376.708    37201.975   -73185.055     98.32866   -425.14078    -31.81481    77.110369    89.040077     81.35737    1798.5367 
   38500   -1794926.7    37050.242    37158.251   -71885.877   -593.78017    553.60065    -422.4584    77.107608    89.036888    81.354456    1796.4173 
   38600   -1794863.3     37593.36     36966.01   -71635.555    298.31657   -204.48418     587.0895    77.113139    89.043276    81.360293    1804.5174 
   38700   -1794874.8    35319.729    36075.747   -73488.192     99.82925    880.84324    423.96033    77.125271    89.057284    81.373092    1806.5577 
   38800   -1794849.2    34139.282     35814.41   -74407.752    99.695565   -196.61414   -55.602262     77.13441    89.067837    81.382735    1795.5607 
   38900     -1794915    34060.469    34309.193   -74902.084    118.23424    448.88774   -27.250394    77.133731    89.067053    81.382018    1797.4859 
   39000     -1794876    36868.203    36444.959   -72926.203    318.48714    179.61864    88.973655    77.121148    89.052524    81.368743    1790.0227 
   39100   -1794851.1    38085.875    38416.515   -72306.123    849.10014    392.76347    372.65845    77.105835    89.034841    81.352585    1792.1313 
   39200   -1794869.1    38920.989    38607.428   -70777.862   -352.27792    280.37516    398.49126    77.100242    89.028383    81.346685    1802.8679 
   39300   -1794898.3    37675.131    36618.249   -72578.945    265.91754    -492.4457    241.98448    77.110342    89.040046    81.357341     1805.829 
   39400   -1794873.3    34977.824    35291.342   -73818.924   -305.48167   -436.67974   -426.35293    77.126927    89.059196    81.374839    1792.3774 
   39500   -1794878.6    33351.173    34523.312   -75104.538    222.28762   -583.82078     281.3143    77.136449    89.070192    81.384886    1786.6462 
   39600   -1794909.8    35656.797    35100.063   -72855.606   -124.32086    476.90004    -641.7906     77.12956    89.062236    81.377617    1799.9017 
   39700   -1794822.8    36424.046     38136.93   -71963.018    -264.9916    299.08834    83.856424    77.114785    89.045176    81.362029    1802.2664 
   39800   -1794847.6    38283.105    38050.695   -70501.108   -176.81861    623.11444    361.69294    77.106109    89.035157    81.352875    1801.9347 
   39900   -1794923.3    35896.612    37750.629   -71978.042    520.14894   -446.38582   -207.35167    77.109578    89.039163    81.356535    1801.9429 
   40000   -1794951.6    36332.296    35481.829   -72802.173   -299.64956    31.593114    169.24108    77.119931    89.051118    81.367458    1799.1664 
   40100   -1794864.9    35198.694     35559.25   -72440.759    1025.1296   -415.20678    675.31144    77.128491    89.061003     81.37649    1790.3228 
   40200   -1794878.6    35936.524    35827.073   -73864.694    338.94378   -20.548682    317.12097    77.129409    89.062062    81.377458     1799.439 
   40300   -1794858.8    35744.229    36432.497   -73019.741   -180.90949    686.47288    53.008201    77.122902    89.054548    81.370592    1798.2827 
   40400   -1794846.3    38278.573    36994.688   -72224.159    383.96353    263.81587    663.36444    77.113884    89.044136    81.361078    1795.4401 
   40500   -1794911.3    37049.785    38533.388   -72309.421   -53.595282    207.93478   -10.677535    77.108957    89.038446     81.35588    1799.1283 
   40600   -1794995.8    36787.545    37546.929   -72603.042    10.884967    796.55065    557.68283    77.110221    89.039906    81.357214    1803.1808 
   40700   -1795003.9    36920.467    36165.384     -73566.8    174.94527    16.468241    507.79204    77.114791    89.045182    81.362035    1796.4873 
   40800   -1794932.7        35785    36172.177   -72968.513    380.97233   -262.05133    357.85505    77.119313    89.050405    81.366807    1791.1995 
   40900   -1794889.3    35936.944    35619.386   -72541.714   -220.26718    420.13493   -58.597518    77.121984    89.053489    81.369624    1801.8599 
   41000   -1794941.2    35578.714    35175.917    -73253.63    248.97567    234.12388    315.20068    77.122172    89.053705    81.369822    1813.5077 
   41100   -1794880.2    37830.081    37079.003   -72151.765    580.51062    230.96267    1017.4938    77.119537    89.050663    81.367043    1803.1703 
   41200   -1794918.6    36880.916    36437.739   -73148.114    569.06569   -809.08383    574.23208    77.117351    89.048139    81.364737     1796.941 
   41300   -1794948.8    37291.482    35952.372   -72982.423   -73.050322     86.09603    443.06055    77.116182    89.046789    81.363503    1793.0388 
   41400   -1794955.8    36769.849    36506.199   -74411.255    559.62162   -524.23809    292.08622    77.116578    89.047246    81.363921    1800.1789 
   41500   -1794803.1    37226.538    36391.859   -73567.977   -107.87259   -325.54582    85.294428    77.118103    89.049007    81.365529    1798.1212 
   41600   -1794866.3    37808.628    35632.848   -73230.096    305.17457   -991.64711    -37.18377    77.121444    89.052865    81.369054    1805.2072 
   41700   -1794873.9    36672.925    35027.843   -73923.941    616.90407   -250.54108   -91.700563    77.124053    89.055878    81.371808    1797.0321 
   41800   -1794967.3    35026.291    35075.246   -73374.455    969.77115     182.3892      717.849    77.122184    89.053719    81.369835    1802.5913 
   41900   -1794976.8     36244.52     35662.33   -72640.869    965.81003   -807.95317     450.4032    77.116673    89.047356    81.364021    1803.7092 
   42000   -1794863.5    37036.676    37507.688   -70740.223    617.97525    278.26943   -801.47377    77.111609    89.041509    81.358678    1802.2515 
   42100   -1794826.6    38487.902    36723.191   -71351.678   -212.80183   -136.39304   -449.76727    77.113237    89.043388    81.360395    1805.4346 
   42200   -1794870.8    35959.279     35717.09   -72483.646    9.8332132   -780.17458     185.7589    77.122324    89.053881    81.369983    1804.3468 
   42300   -1794939.8    34224.956    35388.967   -73565.724    326.66185    679.18767   -260.96021    77.129277     89.06191    81.377319    1805.3023 
   42400   -1794920.3    35941.009    34818.021   -73406.784   -749.66367     -103.936   -726.39459    77.127726    89.060119    81.375683    1801.5813 
   42500   -1794915.3    36088.038    36145.649   -72603.455    690.95389    89.001459    796.91978    77.119003    89.050047    81.366479    1802.9018 
   42600     -1794885    38107.613    37737.846   -71783.939    343.88771   -262.38401   -61.153958    77.109388    89.038944    81.356335    1799.8747 
   42700   -1794931.2    37397.543    37467.657   -71506.531    -372.9145    526.76401   -279.60872    77.107402     89.03665    81.354239    1803.1554 
   42800   -1794990.1    35427.596    36966.571   -72972.777    392.90163   -5.3116659    83.275567    77.112833    89.042922     81.35997    1798.3906 
   42900   -1794956.4    36027.046    35512.034   -74191.948    629.52914    299.31242    257.37431    77.120637    89.051933    81.368203    1793.5397 
   43000     -1794881    35920.317    36411.174    -73317.41   -1204.1742    837.19119   -218.18229    77.125224     89.05723    81.373043    1796.9462 
   43100   -1794833.9    36611.924    36136.895   -73526.854   -234.00073   -287.52422    82.225812    77.125876    89.057982     81.37373    1797.2539 
   43200   -1794870.9    36276.108    36465.435   -72946.172    282.65507    114.45445    437.91148    77.122793    89.054423    81.370478    1801.5835 
   43300   -1794887.7     36747.94    36344.363    -72470.84   -531.34911    58.970239   -64.464116    77.116908    89.047627    81.364268    1797.6448 
   43400   -1794987.3    37222.883    36117.331   -72857.888    752.30518   -540.19543    678.24524    77.110883     89.04067    81.357912    1795.9293 
   43500   -1794983.1     37498.66    37017.846   -72099.884     346.6801   -729.40644    645.65572    77.107297    89.036529    81.354128    1794.0415 
   43600   -1794915.1    36979.918     36821.16   -71333.475    -296.2692   -323.60908   -322.21005    77.108427    89.037834     81.35532    1793.4305 
   43700   -1794926.1    36181.485     35998.31     -72004.6    349.13052   -289.35065   -97.634671    77.114313    89.044631    81.361531    1799.9051 
   43800   -1794878.2    37057.133    35511.254   -72605.696   -229.89479   -973.67141    273.24592    77.122197    89.053734    81.369849    1799.1943 
   43900   -1794825.3    36395.241    34761.442   -73505.134    -106.1395   -672.86259   -205.14388    77.128134    89.060589    81.376113    1797.2294 
   44000   -1794831.3    35699.732    36229.173   -73159.029    -340.2656    196.53742   -411.05544    77.128866    89.061435    81.376885    1801.9003 
   44100   -1794862.3    35934.257    36037.204   -73635.191    473.12277    61.146836   -54.194932    77.125492    89.057539    81.373325    1807.8901 
   44200   -1794881.9    35986.684    36929.985   -73041.821    570.61039    194.40123   -14.113404     77.11956     89.05069    81.367067    1800.7638 
   44300     -1794931    36504.756     37119.92   -71741.554    164.14455   -169.53212    109.08512    77.112562    89.042609    81.359684    1796.8593 
   44400   -1794972.7    37047.293     36939.99   -72201.678   -267.76716    -572.9283    128.73787    77.109011    89.038508    81.355936    1801.3181 
   44500   -1794911.2    36738.306    37738.919   -72515.013    410.17347    130.03208    39.974613    77.110562      89.0403    81.357574    1801.3856 
   44600   -1794801.9    36766.512      37396.5   -72193.287     225.4733   -104.23736   -191.99982    77.118702    89.049699    81.366162     1801.734 
   44700   -1794823.7    36087.587    35712.243   -73237.145   -428.32172   -326.54272    -417.5931     77.13085    89.063726    81.378979    1803.0004 
   44800   -1794814.6    34311.822     34729.71   -74807.222   -533.47928   -203.63346    -183.5622    77.137347    89.071228    81.385833    1795.1891 
   44900   -1794882.6    34638.194    35150.563   -74377.734   -309.15816    378.89825   -438.86778     77.13033    89.063126     81.37843    1799.4212 
   45000   -1794902.1    37587.428    36516.845   -72993.451   -255.98149   -122.22782    92.630466     77.11332    89.043484    81.360483    1800.9232 
   45100   -1794849.4    37698.657    38551.737   -70587.935   -505.96256    359.89931   -214.45272    77.099167    89.027141     81.34555     1791.903 
   45200   -1794895.1    38141.242    39097.885   -70024.175   -553.72983   -159.60921   -294.39267    77.096994    89.024632    81.343258    1784.1527 
   45300   -1794949.4    37391.438    37390.779   -71571.223   -587.27711    365.16113     19.10824    77.109518    89.039094    81.356472    1787.3407 
   45400   -1794913.5    34369.999    35897.087   -74287.499     164.3701   -107.38064    50.053348    77.127901    89.060321    81.375868    1795.5295 
   45500   -1794877.2    34094.682    33685.084   -73614.848   -468.21452   -61.462017    367.42733    77.138642    89.072724      81.3872    1801.2892 
   45600   -1794879.5    34522.074    35019.382   -73223.241   -153.56237    10.988565   -43.971797    77.134472    89.067909      81.3828    1805.3594 
   45700   -1794834.6    37053.312     36357.16   -72574.256   -84.209842   -147.47666   -45.275701    77.118902    89.049929    81.366372    1797.1605 
   45800   -1794912.1    37806.556    37943.825   -72089.319    216.13009   -539.58474   -396.14452    77.103606    89.032267    81.350234    1792.7416 
   45900   -1794952.9    39280.435    37514.474   -71810.435    -972.9033   -754.54813   -56.171762    77.097849    89.025619     81.34416    1792.1575 
   46000   -1794982.3    38451.982    37987.413   -72316.727   -933.10406   -627.80079   -57.080793    77.105914    89.034933     81.35267    1801.5606 
   46100   -1794873.3     36822.56    35884.958   -73980.278    656.93442   -841.70492    663.92955    77.123161    89.054848    81.370866    1793.9903 
   46200   -1794842.9    34932.155    33950.985   -75368.952    724.38668   -727.97868    578.68904    77.137391     89.07128     81.38588    1795.1287 
   46300   -1794828.7    34108.123    35609.281   -75420.971   -215.60177   -854.04445    228.67131    77.138666    89.072751    81.387225    1795.6607 
   46400   -1794861.1    35682.558    36465.573   -74299.744    291.02821   -685.26539    -61.60047    77.126973    89.059249    81.374888    1801.5262 
   46500   -1794877.6    38028.307    37136.487   -72183.629    633.13745   -745.55848    662.93129     77.11026    89.039951    81.357255    1797.1879 
   46600     -1794972    37481.805    39008.555   -71706.832    84.509561   -1186.7449    193.03708    77.100261    89.028405    81.346705    1790.4528 
   46700   -1794971.2    38696.482    38187.893   -71637.155   -581.85743   -525.21662    57.252027    77.100805    89.029033    81.347279    1793.3166 
   46800   -1794902.9    38008.758    36447.772    -72451.03    410.34935   -632.15265   -673.05014    77.112531    89.042573     81.35965    1795.8402 
   46900   -1794892.1    35810.461    35506.608   -74370.739    294.82218    -206.1456   -552.00769    77.128296    89.060777    81.376284    1802.9285 
   47000   -1794868.6    34573.301     34273.09   -74834.691    827.03495    655.81961     324.1016    77.137241    89.071106    81.385722    1802.4121 
   47100   -1794866.5    35313.032     35030.53   -74263.364    299.16252    206.32374    225.58703    77.133031    89.066244     81.38128    1801.6737 
   47200     -1794877     35765.54    36112.354   -72942.351   -478.44921    226.25032     413.9515    77.118568    89.049545    81.366021    1792.8379 
   47300   -1794996.9    37099.831     37632.78   -71588.707    188.29925   -239.60765     551.4505    77.101737    89.030109    81.348262    1798.5219 
   47400   -1794959.5    37793.074      38823.5   -70708.249    143.37649   -181.44238     519.0713    77.094117    89.021311    81.340223    1795.3805 
   47500   -1794902.2    38523.364     37918.39    -70004.19    557.78805    64.406149    407.38531    77.102409    89.030885    81.348971    1800.5301 
   47600   -1794876.1    36004.431     36436.64   -72469.586    31.195021    809.45784    94.889272    77.122913    89.054562    81.370605    1803.7131 
   47700   -1794868.8     32220.68      34913.3   -73512.386   -208.89465     809.4333     121.7871    77.141869     89.07645    81.390605    1802.3569 
   47800   -1794891.9    33961.591    33214.494   -74720.178   -804.88399    687.54076   -150.95027    77.143776    89.078652    81.392617    1803.5463 
   47900   -1794911.3     35622.49    34319.873     -73242.9   -222.64389    481.28897    459.37651    77.127258    89.059578    81.375189    1803.6025 
   48000   -1794957.7    36133.661    38396.536   -71768.227    187.74247    714.82765     1076.241    77.105066    89.033953    81.351774    1797.0823 
   48100   -1794926.4    39871.953    38841.568   -69766.255    392.24011    267.59875    264.76638    77.091736     89.01856     81.33771    1785.1418 
   48200   -1794982.7    39067.462    38264.823   -71072.799   -682.55301   -728.17764    228.17609    77.096523    89.024088    81.342761    1800.2191 
   48300   -1794875.5    35887.368    37810.045    -71994.22    166.84443    349.41122    174.63638    77.116672    89.047355     81.36402     1798.227 
   48400   -1794957.8    33604.991    33172.234   -74889.105   -190.52107   -366.93206   -139.60053    77.138474     89.07253    81.387023    1812.3425 
   48500   -1794882.6    33845.899    32090.185   -73651.471   -116.32664   -184.39576    102.36851    77.144235    89.079182    81.393101     1803.539 
   48600   -1794860.3    34658.095    34347.104   -73645.559   -1265.4542    170.72992    6.7882091    77.131944     89.06499    81.380133    1802.6274 
   48700   -1794872.7    36595.148    37127.922   -72229.721    122.34433   -539.52421    431.01852    77.110844    89.040625    81.357871    1801.6117 
   48800   -1794947.9    38845.427    38082.008   -71088.177     328.4198      -291.55    168.98368    77.096957    89.024589    81.343218    1799.5273 
   48900   -1794947.7    37350.895    38710.783   -71074.427    -723.5219    633.98631   -390.00282    77.098532    89.026408    81.344881    1792.4464 
   49000   -1794926.7    36656.966     37294.31     -71855.2   -182.32429    96.694302    296.69079    77.111162    89.040993    81.358207    1794.4567 
   49100   -1794896.8    35970.447    34817.033   -74495.933    294.34983    215.87124   -288.07885     77.12668    89.058911    81.374579    1805.0557 
   49200   -1794887.1    33955.158    34578.351   -74384.263   -152.68286   -129.47716    110.59907    77.134733     89.06821    81.383075    1806.0108 
   49300   -1794863.5    35039.847    35690.268   -74180.991    215.86973    341.68083   -105.64917    77.130941    89.063832    81.379075    1800.4452 
   49400   -1794873.5    36519.309    36159.249    -72944.76   -38.513031    252.16128   -86.458557    77.119289    89.050377    81.366781    1795.1566 
   49500   -1794926.3      36859.8    36762.202   -72179.144   -481.70552    44.212265   -1135.1379    77.106419    89.035516    81.353202    1790.1019 
   49600     -1795041    38486.889    37934.885   -70893.245    206.10049   -561.24024   -188.76472    77.099616     89.02766    81.346025    1797.5219 
   49700   -1794969.1     38590.12    37881.845   -71801.007   -49.916996    -602.6869    386.94064    77.103754    89.032439    81.350391    1801.0464 
   49800   -1794903.1    37337.276    36966.239   -72166.676    785.97994   -94.545657   -171.17452    77.116101    89.046695    81.363417    1805.7946 
   49900   -1794900.9    35662.829    35712.606   -73776.583    120.12924   -103.38925     -387.641    77.128926    89.061505    81.376949    1807.2187 
   50000   -1794832.5    34954.344    34451.296   -74098.642   -613.76098   -312.71076   -215.31057    77.134571    89.068023    81.382904    1795.2154 
[...]
   87800   -1794745.8    35070.457    35921.542   -73830.184   -106.95918    325.99191    -656.6952    77.130717    89.063572    81.378838    1795.6014 
   87900   -1794864.8    35204.009    35931.029   -73873.436    362.14462    171.21072    451.05614    77.130717    89.063572    81.378838    1797.4048 
   88000   -1794864.6     36502.69    35225.829   -73925.479   -170.87563    533.15334   -349.89076    77.130717    89.063572    81.378838     1803.773 
   88100   -1794952.8    34651.795    34667.068   -74662.956   -965.82252   -83.414946   -718.90783    77.130717    89.063572    81.378838    1794.1447 
   88200   -1794837.9    35253.612    35547.705   -73406.896   -749.76812    465.53803    -56.51759    77.130717    89.063572    81.378838    1811.8649 
   88300   -1794865.5     35269.36    34886.236   -74508.223     327.7292    39.018207    340.29303    77.130717    89.063572    81.378838    1790.5046 
   88400   -1794915.2    34728.662    34951.319   -73905.754    364.50198   -356.89805    535.76865    77.130717    89.063572    81.378838    1798.1828 
   88500   -1794923.6    34289.918    35006.912   -74403.954   -175.33019   -314.53931    426.25012    77.130717    89.063572    81.378838    1804.0477 
   88600   -1794893.5    36001.702    34693.493   -73588.503    867.94016     297.7129    476.82663    77.130717    89.063572    81.378838    1801.2346 
   88700   -1794935.4    35095.103    34708.466    -73793.19   -159.70566   -362.20884   -581.37392    77.130717    89.063572    81.378838    1802.6792 
   88800   -1794924.8    35923.678    34198.422   -73317.968   -164.98422   -534.36757    514.30851    77.130717    89.063572    81.378838    1807.1816 
   88900   -1794875.3    36102.156    34501.057   -73118.285   -208.28475    -299.5083    499.49871    77.130717    89.063572    81.378838    1808.9612 
   89000   -1794927.7    34602.931    35152.109   -74757.388    204.09772   -682.72248    70.701106    77.130717    89.063572    81.378838    1790.1807 
   89100   -1794930.3    34954.752    33971.247   -74797.549    63.914477   -786.35292   -474.98557    77.130717    89.063572    81.378838    1799.7945 
   89200   -1794792.7    35409.685    34543.532   -74305.062   -294.74923    244.26969   -264.97799    77.130717    89.063572    81.378838    1809.8181 
   89300   -1794879.9    35495.293    34570.167    -74320.04    -55.62937   -92.753315    325.69966    77.130717    89.063572    81.378838    1797.9605 
   89400   -1794904.7    35516.598    34561.993    -74949.25    299.90888    -798.6081    352.71351    77.130717    89.063572    81.378838    1796.3465 
   89500   -1794891.3    35372.607    35135.005   -75229.772    50.752499    73.172709    13.664672    77.130717    89.063572    81.378838    1802.9287 
   89600   -1794915.8    35579.175    35414.911   -74593.588    340.97757    283.70489    198.56192    77.130717    89.063572    81.378838    1799.9508 
   89700   -1794905.8    35238.152    34726.217   -73887.596    1085.9926    22.912532    334.21268    77.130717    89.063572    81.378838    1804.9029 
   89800   -1794871.1    35866.855    36091.227   -73477.106    238.49754    84.103331    508.26482    77.130717    89.063572    81.378838    1799.0968 
   89900     -1794881    35325.988    36467.844    -74122.48   -577.60802   -211.31703   -463.26105    77.130717    89.063572    81.378838    1804.5386 
   90000   -1794916.5    33521.816    35817.053   -73785.709    4.9312474    1448.5301    291.00705    77.130717    89.063572    81.378838    1798.1743 
   90100   -1794885.2    35475.795    35178.487   -73696.085    570.92629    88.372236    456.41147    77.130717    89.063572    81.378838    1790.6979 
   90200   -1794849.9    35961.445    34755.459    -73110.88   -122.45677   -561.29076    291.37782    77.130717    89.063572    81.378838    1804.8153 
   90300   -1794979.6    34826.814    34149.412   -72886.454     685.5505   -176.55024    335.17163    77.130717    89.063572    81.378838    1800.2481 
   90400   -1794876.3    34574.457    35544.757   -73856.913   -119.97955    266.39818    540.40377    77.130717    89.063572    81.378838    1798.2315 
   90500   -1794827.7    36349.929    35087.187   -73024.056     251.8545    27.040408    238.25002    77.130717    89.063572    81.378838    1808.7947 
   90600   -1794864.2    36002.732    34775.268   -73526.706   -380.77783     231.1334    82.151251    77.130717    89.063572    81.378838    1806.6362 
   90700   -1794850.6    35529.854    35679.925   -73994.734   -40.508836   -125.31799   -48.364218    77.130717    89.063572    81.378838    1792.0769 
   90800   -1794880.3     36030.16    34829.833   -73323.762     -856.777   -430.00587   -359.18241    77.130717    89.063572    81.378838    1792.6861 
   90900   -1794836.2    35234.101    35965.899   -73566.171   -453.77143    416.26474    -3.744815    77.130717    89.063572    81.378838    1809.9256 
   91000   -1794868.5    35304.677    34688.086   -74680.425    78.432024    146.56086   -405.20214    77.130717    89.063572    81.378838    1803.8707 
   91100     -1794895    35998.554    34067.527   -73726.457     -622.046   -216.63778   -1023.7756    77.130717    89.063572    81.378838     1796.454 
   91200   -1794860.3     35164.73    35191.641   -73710.534   -551.10282   -26.571822   -252.50769    77.130717    89.063572    81.378838    1810.7092 
   91300   -1794862.5    35046.722    34841.492   -73307.643   -163.11759    246.34776   -479.06968    77.130717    89.063572    81.378838     1808.572 
   91400   -1794919.4    34690.699    34194.119   -74318.825    589.98633    346.55803    231.26283    77.130717    89.063572    81.378838    1801.7683 
   91500   -1794903.5    35573.799    34674.754   -74039.541   -134.20728    493.51055   -209.32285    77.130717    89.063572    81.378838    1806.0738 
   91600   -1794842.5    35384.282    34108.971   -73727.373    59.888597    549.52932  -0.22885559    77.130717    89.063572    81.378838    1789.2129 
   91700     -1794838    36235.659    34506.749   -74077.706    624.88887   -320.06961   -230.61777    77.130717    89.063572    81.378838    1785.9529 
   91800   -1794906.8    34610.908    34874.074   -73717.544    659.62224    -37.22561    267.78312    77.130717    89.063572    81.378838     1797.568 
   91900   -1794906.9        35602    34295.752   -74765.396    422.64814   -304.55664    388.99611    77.130717    89.063572    81.378838    1803.9795 
   92000   -1794865.9    35084.804    35736.578    -74363.22    -7.668173   -293.56512    209.16855    77.130717    89.063572    81.378838    1795.1796 
   92100   -1794937.8    34320.383    36039.179   -74639.294    577.97607    45.915853    430.84177    77.130717    89.063572    81.378838    1801.7624 
   92200   -1794901.6      35692.6    35017.849   -74856.021   -16.563059   -376.01931    773.57748    77.130717    89.063572    81.378838    1793.2446 
   92300   -1794774.2    35422.645    35696.515   -74472.231    943.57196    18.773488     545.7413    77.130717    89.063572    81.378838    1795.0189 
   92400   -1794840.9     34724.88    36256.644   -73872.566    295.01533     423.5538    312.32829    77.130717    89.063572    81.378838    1807.1958 
   92500   -1794880.8    36055.383    35783.378   -73597.328   -83.735638   -187.75406      30.7794    77.130717    89.063572    81.378838    1795.3862 
   92600   -1794838.2    35898.096    34510.841   -73900.048    382.51069    -1.761997    224.05912    77.130717    89.063572    81.378838    1803.7205 
   92700   -1794802.7    36214.983    36248.418   -73952.372   -375.49941    273.91956   -597.23175    77.130717    89.063572    81.378838    1807.0357 
   92800   -1794888.7    34922.944    36087.123   -73368.133   -133.88234    108.64414    -554.8425    77.130717    89.063572    81.378838    1792.2148 
   92900   -1794904.1    35691.886    35057.044    -73819.89    137.09169    289.94231    57.588786    77.130717    89.063572    81.378838    1803.6037 
   93000   -1794813.5    35446.623    34823.062   -73933.724   -733.23807   -74.927051    433.46209    77.130717    89.063572    81.378838    1796.3094 
   93100   -1794950.3     34074.79    35388.448   -75041.845   -218.80788   -56.389825   -195.66963    77.130717    89.063572    81.378838    1791.8366 
   93200   -1794962.1    33858.046    35719.763   -75130.942   -229.96777     122.6816   -739.96464    77.130717    89.063572    81.378838    1805.0954 
   93300   -1794896.2    37417.818    35318.695   -74408.655   -687.49463   -553.16961   -219.15243    77.130717    89.063572    81.378838    1797.1576 
   93400     -1794853    35749.649    36055.341   -73746.458   -700.35674    281.68787   -724.21683    77.130717    89.063572    81.378838    1804.7164 
   93500   -1794934.2    35352.554    35626.831   -74773.441   -742.77619     54.47231   -369.98777    77.130717    89.063572    81.378838    1800.9475 
   93600   -1794871.9    35601.391    33947.068   -74333.387   -77.725424   -330.66586    1179.4219    77.130717    89.063572    81.378838    1793.1985 
   93700   -1794851.5    35286.999    34512.928   -74427.075   -1218.0492    184.48375   -239.72802    77.130717    89.063572    81.378838    1793.7251 
   93800   -1794881.1    35444.195    35638.337   -73013.759   -469.90476    128.08399    -396.5946    77.130717    89.063572    81.378838    1799.1867 
   93900     -1794844    35392.278    35401.537   -73585.517    891.74742   -247.30637    409.43812    77.130717    89.063572    81.378838    1809.9424 
   94000   -1794827.8    34773.538    36022.343   -73722.697    395.97713    825.05817    12.288894    77.130717    89.063572    81.378838    1797.7675 
   94100   -1794852.5    35226.491    36152.085   -72783.414     199.9578    660.01478    -13.68998    77.130717    89.063572    81.378838      1799.32 
   94200   -1794896.2    35233.824    35714.554   -73357.136    196.37607    643.54328    511.90812    77.130717    89.063572    81.378838    1797.3414 
   94300   -1794867.6    34631.289    35158.553   -73171.028    806.92007    972.33578    839.76365    77.130717    89.063572    81.378838    1795.8934 
   94400   -1794858.4    35022.104    36096.607   -74410.089   -684.24656    973.49138   -382.63769    77.130717    89.063572    81.378838    1795.1687 
   94500   -1794882.1    34727.527    36094.746   -74723.226   -293.62631    311.80518    353.95854    77.130717    89.063572    81.378838    1798.0375 
   94600   -1794836.8    35448.158    34653.582   -73786.079   -85.835092    -375.5117   -323.59304    77.130717    89.063572    81.378838    1803.0062 
   94700   -1794804.6    34621.314    35150.736   -73429.207   -403.76711    982.35392   -58.673488    77.130717    89.063572    81.378838    1798.5445 
   94800   -1794828.1     35194.38    35808.005   -73970.789   -280.97187    283.46858   -804.55444    77.130717    89.063572    81.378838    1790.6354 
   94900   -1794792.9    35902.465    34846.431   -74875.006   -500.76046   -638.88416   -731.95545    77.130717    89.063572    81.378838    1789.0526 
   95000     -1794867    36125.719    35478.678   -73879.729   -145.02049   -518.54597     255.3974    77.130717    89.063572    81.378838     1799.821 
   95100   -1794854.3    34426.572    35684.977   -73848.108   -184.30818    73.034961   -586.87614    77.130717    89.063572    81.378838    1801.4742 
   95200   -1794853.4    35531.279    35165.755   -74110.552   -197.41747    -84.47394   0.94719101    77.130717    89.063572    81.378838    1813.6815 
   95300   -1794925.6    36105.128    35023.884   -73271.884    602.27964   -728.65167   -121.31938    77.130717    89.063572    81.378838    1811.1492 
   95400   -1794939.4    33898.621    35136.024   -74411.495    45.399507    47.354288   -118.41281    77.130717    89.063572    81.378838    1795.1289 
   95500   -1794901.7    34960.514     35746.91   -74416.644    281.83629    307.21099    99.123604    77.130717    89.063572    81.378838    1811.4994 
   95600   -1794995.5    34241.125    35760.912   -74519.018    290.54287    212.71431    687.46221    77.130717    89.063572    81.378838    1803.5313 
   95700   -1794973.3    35029.272    34460.994   -74428.738    25.953083   -86.402396    391.52508    77.130717    89.063572    81.378838    1799.6145 
   95800   -1794859.1    34670.332    36503.296   -74356.635    584.83856    331.12708    115.40381    77.130717    89.063572    81.378838       1807.2 
   95900   -1794857.5    34664.637    36686.259   -73570.227    212.29635    760.91558    483.87244    77.130717    89.063572    81.378838    1794.3119 
   96000   -1794885.8    36115.237    34829.215   -74943.623     228.9094    200.30671    242.12661    77.130717    89.063572    81.378838    1806.9888 
   96100   -1794919.3    34916.492    34868.828   -74102.539   -82.654673    242.28594    693.15824    77.130717    89.063572    81.378838     1794.089 
   96200   -1794858.4    34115.554    36145.985   -73008.352   -85.006389    713.33973    175.63105    77.130717    89.063572    81.378838    1803.9884 
   96300   -1794913.6    34955.212    36882.375   -73659.008    527.31701     789.6232    790.78777    77.130717    89.063572    81.378838    1799.1535 
   96400   -1794881.2    35128.067    34584.237   -74671.689    28.284275    547.67026    772.21685    77.130717    89.063572    81.378838    1795.0718 
   96500   -1794923.9    34058.277    35058.286    -73903.13    357.74126    787.80719    1387.0568    77.130717    89.063572    81.378838    1793.3215 
   96600   -1794868.1    35065.729    35058.696   -72886.989   -180.99623    404.70185    77.866668    77.130717    89.063572    81.378838    1810.3994 
   96700   -1794887.5    34870.115    35341.251    -74248.07   -56.319099    476.02349    365.15474    77.130717    89.063572    81.378838    1797.9781 
   96800     -1794895    35498.533    34770.038    -73793.95   -128.00782    179.47572   -226.32534    77.130717    89.063572    81.378838    1794.0207 
   96900   -1794889.8     34824.04    34576.149   -73569.075   -347.32821   -404.94129   -444.03552    77.130717    89.063572    81.378838    1807.7237 
   97000   -1794875.7    35625.474    34610.791   -73229.875    762.81321   -333.07539    165.67784    77.130717    89.063572    81.378838    1796.8041 
   97100   -1794940.2    34930.173    34616.339   -73716.304      379.621    164.89249     515.8572    77.130717    89.063572    81.378838    1791.6795 
   97200   -1794918.4    34730.947    34097.296   -74307.601   -338.08885   -300.51226   -131.88619    77.130717    89.063572    81.378838     1796.408 
   97300   -1794830.3    35575.011    35466.727   -73959.768   -894.72915    287.86576   -635.90547    77.130717    89.063572    81.378838    1792.4599 
   97400   -1794885.1    35356.004    34733.886    -74280.33    274.36806    466.23825   -51.417162    77.130717    89.063572    81.378838    1809.1942 
   97500     -1794891      35587.9    34704.208   -73263.386    579.54616   -185.47306    170.61301    77.130717    89.063572    81.378838    1803.0377 
   97600   -1794946.4    34157.613    34808.907   -73578.635   -219.86293    279.23593    56.566476    77.130717    89.063572    81.378838    1791.8791 
   97700   -1794824.6    35488.874    35277.196   -73883.747    316.46261   -94.930709    5.7299611    77.130717    89.063572    81.378838    1799.5674 
   97800   -1794848.2    34917.767    35301.058   -73853.718   -437.75712    364.70901   -27.299066    77.130717    89.063572    81.378838    1798.1253 
   97900   -1794840.8    35360.438    36354.597   -73705.983    229.45089    193.73818    718.91956    77.130717    89.063572    81.378838    1794.8573 
   98000     -1794913    34365.225    34809.093   -74096.883    489.66391    285.44539   -265.02905    77.130717    89.063572    81.378838    1795.3795 
   98100   -1794957.7    34946.434    35595.877   -74498.531    -383.5995     1005.619     246.0995    77.130717    89.063572    81.378838    1797.7134 
   98200     -1794891    35142.845    35337.206   -74616.979     289.1116    142.22471    403.89755    77.130717    89.063572    81.378838    1792.7916 
   98300   -1794934.4    33783.935    34891.343   -75071.118    264.41727    501.19163   -429.45891    77.130717    89.063572    81.378838     1793.767 
   98400   -1794896.2    35386.529    35572.579    -73803.01   -754.53846    299.91544   -174.53121    77.130717    89.063572    81.378838    1793.7965 
   98500     -1794859    36092.424    35198.972   -73950.528   -260.35137   -108.30456    131.92173    77.130717    89.063572    81.378838    1801.9235 
   98600   -1794915.5    34499.057    35350.401   -74038.117      46.3588    201.12069     684.5785    77.130717    89.063572    81.378838    1810.0327 
   98700   -1794861.8    34945.542    37151.151   -73171.705    724.12714    993.28436      72.8645    77.130717    89.063572    81.378838    1797.3858 
   98800   -1794916.3     35199.45    35307.902   -73060.154     449.1519   -161.54565    137.77651    77.130717    89.063572    81.378838     1805.739 
   98900     -1794864    35435.403    34613.036   -73683.956    61.423225    456.72618    44.367555    77.130717    89.063572    81.378838    1803.2437 
   99000   -1794938.6    35804.547    34723.409   -73689.306    85.352359    24.031897   -332.73884    77.130717    89.063572    81.378838    1802.8566 
   99100   -1794964.3     34738.11    35232.666   -75222.218    1121.8881    344.35079    252.30853    77.130717    89.063572    81.378838    1801.4317 
   99200   -1794912.6    34688.323    34618.077   -73806.383     107.1093   -1027.2975   -162.30047    77.130717    89.063572    81.378838    1812.0264 
   99300     -1794878     35313.26     35023.42   -74122.749    -777.7647   -478.29623    297.08792    77.130717    89.063572    81.378838    1799.6908 
   99400   -1794864.4    35336.983    34589.184   -75097.058   -496.78205   -104.93771   -289.84048    77.130717    89.063572    81.378838    1795.9708 
   99500   -1794837.2    36436.463    34282.909    -74311.97    189.34547   -767.27941    363.46662    77.130717    89.063572    81.378838    1805.1161 
   99600   -1794840.5    35816.363    35799.753   -74264.524   -95.830031   -52.226511    -34.31913    77.130717    89.063572    81.378838    1793.0345 
   99700   -1794823.7    35612.935    36285.817   -75230.636   -459.52987    -227.9718   -349.94562    77.130717    89.063572    81.378838    1803.9374 
   99800   -1794840.4    36268.857    35674.127   -74371.451    328.69373    -332.4921    872.31495    77.130717    89.063572    81.378838    1800.1267 
   99900   -1794909.5    35853.668    34591.487   -74475.378   -619.39834    93.872046    17.067982    77.130717    89.063572    81.378838     1797.625 
  100000   -1794923.7    35337.612    35250.795   -74389.904   -367.18858   -411.33252     106.9043    77.130717    89.063572    81.378838    1795.0212 
  100083   -1794860.6    35154.715    34372.984   -73480.789   -67.511508    5.6684562   -122.61579    77.130717    89.063572    81.378838    1793.4198 
Loop time of 7663.87 on 15 procs for 50000 steps with 58365 atoms

Pair  time (%) = 4404.51 (57.4711)
Kspce time (%) = 2810.1 (36.6668)
Neigh time (%) = 100.489 (1.31121)
Comm  time (%) = 227.054 (2.96266)
Outpt time (%) = 2.17486 (0.0283781)
Other time (%) = 119.543 (1.55983)

Nlocal:    3891 ave 3925 max 3837 min
Histogram: 2 1 0 0 1 2 2 1 3 3
Nghost:    18535.1 ave 18663 max 18414 min
Histogram: 4 2 0 0 0 1 3 2 0 3
Neighs:    1.48799e+06 ave 1.53005e+06 max 1.44352e+06 min
Histogram: 1 1 2 2 1 3 1 1 1 2

Total # of neighbors = 22319845
Ave neighs/atom = 382.418
Neighbor list builds = 1591
Dangerous builds = 0
unfix   2


write_data NPT_relaxed_1800.data
PPPM initialization ...
  G vector (1/distance) = 0.308857
  grid = 72 80 75
  stencil order = 5
  estimated absolute RMS force accuracy = 0.00179063
  estimated relative force accuracy = 0.000124353
  using double precision FFTs
  3d grid and FFT values/proc = 58144 28800

