LAMMPS (28 Jun 2014)
Running on 20 partitions of processors
Step MaxReplicaForce MaxAtomForce GradV0 GradV1 GradVc EBF EBR RDT RD1 PE1 RD2 PE2 ... RDN PEN
0    92.768193    20.065361    92.768193    92.738004    92.768193            0 0.0069029092    2.8895067            0   -14735.466  0.052631579   -14737.499   0.10526316   -14739.053   0.15789474   -14740.093   0.21052632   -14740.594   0.26315789   -14740.575   0.31578947   -14740.131   0.36842105   -14739.448   0.42105263   -14738.777   0.47368421   -14738.365   0.52631579   -14738.364   0.57894737   -14738.775   0.63157895   -14739.445   0.68421053   -14740.127   0.73684211    -14740.57   0.78947368   -14740.589   0.84210526    -14740.09   0.89473684   -14739.052   0.94736842   -14737.502            1   -14735.473 
100   0.40686614   0.18820178   0.28973075   0.28955241     0.374678   0.95923827   0.95962261    3.4640805            0   -14820.967  0.031246328   -14820.965  0.068221253   -14820.941   0.11360482   -14820.882   0.16578947   -14820.787    0.2231719   -14820.655   0.28401188   -14820.486   0.34622386   -14820.286   0.40820091   -14820.107   0.46947145   -14820.008    0.5303057   -14820.008   0.59157101   -14820.106   0.65353786   -14820.286   0.71573732   -14820.485   0.77657024   -14820.654   0.83396436   -14820.786   0.88618208   -14820.882   0.93159683   -14820.941   0.96866599   -14820.965            1   -14820.967 
200  0.057815425   0.03178102  0.039017641  0.038970915    0.2320172   0.95975334   0.96011219    3.5862647            0   -14820.992  0.049921591   -14820.972  0.099880536   -14820.911   0.15022008   -14820.822   0.20134022   -14820.711    0.2534864   -14820.582   0.30670788    -14820.44   0.36094839   -14820.276   0.41609291   -14820.121   0.47187439   -14820.033   0.52788438   -14820.032   0.58367182    -14820.12   0.63882779   -14820.275   0.69308457   -14820.439   0.74632876   -14820.582   0.79850416   -14820.711   0.84965876   -14820.822   0.90003597   -14820.911   0.95003531   -14820.972            1   -14820.993 
300  0.019819434 0.0030947522  0.019819434  0.019770062   0.21818238   0.96082989   0.96113622    3.6298686            0   -14820.993   0.05267252   -14820.973   0.10524258   -14820.909   0.15775073   -14820.814   0.21024623   -14820.697   0.26277551   -14820.565   0.31536865   -14820.422   0.36803051   -14820.259   0.42075397   -14820.113   0.47352231   -14820.032   0.52630852   -14820.032   0.57908131   -14820.113   0.63181348   -14820.258   0.68448813   -14820.421   0.73709811   -14820.565   0.78964782   -14820.697   0.84216688   -14820.814   0.89470102   -14820.909   0.94729881   -14820.973            1   -14820.993 
400 0.0062530913 0.0033288072 0.0062530913 0.0062518791   0.21743877   0.96082074   0.96112524    3.6528142            0   -14820.993  0.052977328   -14820.975   0.10584973   -14820.911   0.15861871   -14820.816   0.21129417   -14820.699   0.26388816   -14820.566   0.31641459   -14820.422   0.36888884   -14820.259   0.42132506   -14820.113   0.47373834   -14820.032   0.52614485   -14820.032   0.57856147   -14820.113   0.63100396   -14820.258   0.68348725   -14820.421   0.73602539   -14820.566   0.78863353   -14820.699   0.84132519   -14820.816   0.89411195   -14820.912   0.94700323   -14820.975            1   -14820.993 
500 0.0038246839 0.0018706244 0.0028041647  0.002801614   0.21846873   0.96058529   0.96088997    3.6647692            0   -14820.993  0.052845005   -14820.976   0.10563787   -14820.913   0.15837226   -14820.819    0.2110468   -14820.702   0.26366395   -14820.568   0.31623069   -14820.424   0.36875594    -14820.26   0.42125058   -14820.114   0.47372608   -14820.033   0.52619588   -14820.032    0.5786736   -14820.114   0.63117256    -14820.26   0.68370408   -14820.423   0.73627873   -14820.568   0.78890537   -14820.702   0.84159071   -14820.819   0.89433694   -14820.914   0.94714224   -14820.976            1   -14820.993 
600 0.0036545811 0.0011658404 0.0012776189 0.0012749211   0.21916887   0.96046813   0.96078516    3.6698479            0   -14820.993  0.052741922   -14820.976   0.10545756   -14820.915   0.15814287    -14820.82   0.21079758   -14820.703   0.26342159    -14820.57   0.31601887   -14820.425    0.3685938   -14820.261   0.42115216   -14820.115   0.47370012   -14820.033   0.52624504   -14820.033   0.57879456   -14820.115   0.63135603   -14820.261   0.68393565   -14820.425   0.73653861    -14820.57   0.78916924   -14820.703   0.84183146    -14820.82     0.894525   -14820.915   0.94724929   -14820.976            1   -14820.993 
680 0.00096490732 0.00065972185 0.00075608624 0.00075854561   0.21946895   0.96049097   0.96081602    3.6716602            0   -14820.993  0.052697862   -14820.976   0.10537986   -14820.915   0.15804374   -14820.821   0.21068904   -14820.704   0.26331572    -14820.57   0.31592618   -14820.425   0.36852282   -14820.262   0.42110936   -14820.115   0.47368961   -14820.033   0.52626809   -14820.033   0.57884945   -14820.115   0.63143833   -14820.262   0.68403835   -14820.425   0.73665305    -14820.57   0.78928473   -14820.704   0.84193581   -14820.821   0.89460614   -14820.915     0.947295   -14820.976            1   -14820.993 
Climbing replica = 11
Step MaxReplicaForce MaxAtomForce GradV0 GradV1 GradVc EBF EBR RDT RD1 PE1 RD2 PE2 ... RDN PEN
680   0.21946895   0.13350539 0.00075608624 0.00075854561   0.21946895   0.96049097   0.96081602    3.6716602            0   -14820.993  0.052697862   -14820.976   0.10537986   -14820.915   0.15804374   -14820.821   0.21068904   -14820.704   0.26331572    -14820.57   0.31592618   -14820.425   0.36852282   -14820.262   0.42110936   -14820.115   0.47368961   -14820.033   0.52626809   -14820.033   0.57884945   -14820.115   0.63143833   -14820.262   0.68403835   -14820.425   0.73665305    -14820.57   0.78928473   -14820.704   0.84193581   -14820.821   0.89460614   -14820.915     0.947295   -14820.976            1   -14820.993 
780  0.043590939  0.020822578 0.00035034898 0.00035048696  0.019200946   0.97120844    0.9714911     3.673079            0   -14820.993  0.052120866   -14820.977   0.10405127   -14820.917   0.15563645   -14820.826   0.20674962   -14820.714   0.25727946   -14820.587   0.30717174   -14820.453    0.3564428   -14820.303   0.40514372   -14820.157   0.45338524   -14820.057   0.50132345   -14820.022   0.55859994   -14820.072   0.61560433   -14820.211   0.67215376   -14820.388   0.72812379   -14820.546   0.78347882   -14820.689   0.83823301   -14820.813   0.89247276   -14820.912   0.94633965   -14820.976            1   -14820.993 
880  0.036468195  0.006174661 0.00018752546 0.00026330173 0.00071957413   0.97126479    0.9715726    3.6739378            0   -14820.993  0.050698521   -14820.978   0.10132974   -14820.922   0.15184464   -14820.835   0.20221333   -14820.726   0.25240192   -14820.601   0.30240612   -14820.467   0.35224526   -14820.317   0.40193029   -14820.166   0.45151372    -14820.06   0.50103689   -14820.022   0.55683269   -14820.069   0.61258119   -14820.201   0.66825894   -14820.375   0.72382018   -14820.534   0.77926487   -14820.678   0.83458535   -14820.805   0.88979341   -14820.907   0.94492109   -14820.974            1   -14820.993 
980 0.0045340604 0.0026472121 0.00011868311 0.00016922097 0.0001694734   0.97125851   0.97154285    3.6744612            0   -14820.993  0.050373127   -14820.978   0.10071533   -14820.923   0.15100662   -14820.837   0.20123094   -14820.728   0.25137773   -14820.604   0.30144465    -14820.47   0.35143687    -14820.32   0.40136685   -14820.168   0.45125098    -14820.06   0.50111074   -14820.022   0.55666088   -14820.069   0.61219651     -14820.2   0.66770546   -14820.373   0.72317962   -14820.532   0.77861168   -14820.676   0.83400233   -14820.803   0.88935695   -14820.906   0.94468535   -14820.974            1   -14820.993 
1071 0.00098610321 0.00065757783 6.2304719e-05 8.6746421e-05 8.0780835e-05   0.97128187   0.97155822    3.6748836            0   -14820.993  0.050175311   -14820.979   0.10034394   -14820.923   0.15050073   -14820.838   0.20064163    -14820.73   0.25076366   -14820.606   0.30086612   -14820.471   0.35095026   -14820.322     0.401019   -14820.169   0.45107644    -14820.06   0.50112787   -14820.022   0.55657177   -14820.069   0.61201388   -14820.199   0.66745269   -14820.373   0.72288722   -14820.531   0.77831681   -14820.675   0.83374168   -14820.803   0.88916273   -14820.906   0.94458156   -14820.974            1   -14820.993 
