479
Atoms. Timestep: 0
1 1.314 19.0766 3.398
1 5.609 16.5976 3.398
1 9.903 14.1176 3.398
1 14.198 11.6386 3.398
1 1.314 4.2 3.398
1 5.609 1.721 3.398
1 9.903 19.0766 3.398
1 14.198 16.5976 3.398
1 1.314 9.159 3.398
1 5.609 6.68 3.398
1 9.903 4.2 3.398
1 14.198 1.721 3.398
1 1.314 14.118 3.398
1 5.609 11.639 3.398
1 9.903 9.159 3.398
1 14.198 6.68 3.398
1 0 1.517 3.398
1 4.295 18.8736 3.398
1 8.589 16.3946 3.398
1 12.884 13.9146 3.398
1 0 6.476 3.398
1 4.295 3.997 3.398
1 8.589 1.517 3.398
1 12.884 18.8736 3.398
1 0 11.435 3.398
1 4.295 8.956 3.398
1 8.589 6.476 3.398
1 12.884 3.997 3.398
1 0 16.394 3.398
1 4.295 13.915 3.398
1 8.589 11.435 3.398
1 12.884 8.956 3.398
1 2.98 1.721 3.398
1 7.275 19.0766 3.398
1 11.569 16.5976 3.398
1 15.864 14.1176 3.398
1 2.98 6.68 3.398
1 7.275 4.2 3.398
1 11.569 1.721 3.398
1 15.864 19.0766 3.398
1 2.98 11.639 3.398
1 7.275 9.159 3.398
1 11.569 6.68 3.398
1 15.864 4.2 3.398
1 2.98 16.597 3.398
1 7.275 14.118 3.398
1 11.569 11.639 3.398
1 15.864 9.159 3.398
1 2.98 18.1146 10.195
1 7.275 15.6356 10.195
1 11.569 13.1556 10.195
1 15.864 10.6766 10.195
1 2.98 3.238 10.195
1 7.275 0.759 10.195
1 11.569 18.1146 10.195
1 15.864 15.6356 10.195
1 2.98 8.197 10.195
1 7.275 5.718 10.195
1 11.569 3.238 10.195
1 15.864 0.759 10.195
1 2.98 13.156 10.195
1 7.275 10.677 10.195
1 11.569 8.197 10.195
1 15.864 5.718 10.195
1 0 3.441 10.195
1 4.295 0.962 10.195
1 8.589 18.3186 10.195
1 12.884 15.8386 10.195
1 0 8.4 10.195
1 4.295 5.921 10.195
1 8.589 3.441 10.195
1 12.884 0.962 10.195
1 0 13.359 10.195
1 4.295 10.88 10.195
1 8.589 8.4 10.195
1 12.884 5.921 10.195
1 0 18.318 10.195
1 4.295 15.839 10.195
1 8.589 13.359 10.195
1 12.884 10.88 10.195
1 1.314 0.759 10.195
1 5.609 18.1146 10.195
1 9.903 15.6356 10.195
1 14.198 13.1556 10.195
1 1.314 5.718 10.195
1 5.609 3.238 10.195
1 9.903 0.759 10.195
1 14.198 18.1146 10.195
1 1.314 10.677 10.195
1 5.609 8.197 10.195
1 9.903 5.718 10.195
1 14.198 3.238 10.195
1 1.314 15.635 10.195
1 5.609 13.156 10.195
1 9.903 10.677 10.195
1 14.198 8.197 10.195
1 4.177 19.0766 7.929
1 8.472 16.5976 7.929
1 12.766 14.1176 7.929
1 17.061 11.6386 7.929
1 4.177 4.2 7.929
1 8.472 1.721 7.929
1 12.766 19.0766 7.929
1 17.061 16.5976 7.929
1 4.177 9.159 7.929
1 8.472 6.68 7.929
1 12.766 4.2 7.929
1 17.061 1.721 7.929
1 4.177 14.118 7.929
1 8.472 11.639 7.929
1 12.766 9.159 7.929
1 17.061 6.68 7.929
1 2.863 1.517 7.929
1 7.158 18.8736 7.929
1 11.452 16.3946 7.929
1 15.747 13.9146 7.929
1 2.863 6.476 7.929
1 7.158 3.997 7.929
1 11.452 1.517 7.929
1 15.747 18.8736 7.929
1 2.863 11.435 7.929
1 7.158 8.956 7.929
1 11.452 6.476 7.929
1 15.747 3.997 7.929
1 2.863 16.394 7.929
1 7.158 13.915 7.929
1 11.452 11.435 7.929
1 15.747 8.956 7.929
1 1.549 19.0766 7.929
1 5.843 16.5976 7.929
1 10.138 14.1176 7.929
1 14.432 11.6386 7.929
1 1.549 4.2 7.929
1 5.843 1.721 7.929
1 10.138 19.0766 7.929
1 14.432 16.5976 7.929
1 1.549 9.159 7.929
1 5.843 6.68 7.929
1 10.138 4.2 7.929
1 14.432 1.721 7.929
1 1.549 14.118 7.929
1 5.843 11.639 7.929
1 10.138 9.159 7.929
1 14.432 6.68 7.929
1 1.549 0.759 1.133
1 5.843 18.1146 1.133
1 10.138 15.6356 1.133
1 14.432 13.1556 1.133
1 1.549 5.718 1.133
1 5.843 3.238 1.133
1 10.138 0.759 1.133
1 14.432 18.1146 1.133
1 1.549 10.677 1.133
1 5.843 8.197 1.133
1 10.138 5.718 1.133
1 14.432 3.238 1.133
1 1.549 15.635 1.133
1 5.843 13.156 1.133
1 10.138 10.677 1.133
1 14.432 8.197 1.133
1 2.863 18.3186 1.133
1 7.158 15.8386 1.133
1 11.452 13.3596 1.133
1 15.747 10.8796 1.133
1 2.863 3.441 1.133
1 7.158 0.962 1.133
1 11.452 18.3186 1.133
1 15.747 15.8386 1.133
1 2.863 8.4 1.133
1 7.158 5.921 1.133
1 11.452 3.441 1.133
1 15.747 0.962 1.133
1 2.863 13.359 1.133
1 7.158 10.88 1.133
1 11.452 8.4 1.133
1 15.747 5.921 1.133
1 4.177 0.759 1.133
1 8.472 18.1146 1.133
1 12.766 15.6356 1.133
1 17.061 13.1556 1.133
1 4.177 5.718 1.133
1 8.472 3.238 1.133
1 12.766 0.759 1.133
1 17.061 18.1146 1.133
1 4.177 10.677 1.133
1 8.472 8.197 1.133
1 12.766 5.718 1.133
1 17.061 3.238 1.133
1 4.177 15.635 1.133
1 8.472 13.156 1.133
1 12.766 10.677 1.133
1 17.061 8.197 1.133
1 2.746 1.721 12.46
1 7.04 19.0766 12.46
1 11.335 16.5976 12.46
1 15.629 14.1176 12.46
1 2.746 6.68 12.46
1 7.04 4.2 12.46
1 11.335 1.721 12.46
1 15.629 19.0766 12.46
1 2.746 11.639 12.46
1 7.04 9.159 12.46
1 11.335 6.68 12.46
1 15.629 4.2 12.46
1 2.746 16.597 12.46
1 7.04 14.118 12.46
1 11.335 11.639 12.46
1 15.629 9.159 12.46
1 1.432 3.997 12.46
1 5.726 1.517 12.46
1 10.021 18.8736 12.46
1 14.315 16.3946 12.46
1 1.432 8.956 12.46
1 5.726 6.476 12.46
1 10.021 3.997 12.46
1 14.315 1.517 12.46
1 1.432 13.915 12.46
1 5.726 11.435 12.46
1 10.021 8.956 12.46
1 14.315 6.476 12.46
1 1.432 18.874 12.46
1 5.726 16.394 12.46
1 10.021 13.915 12.46
1 14.315 11.435 12.46
1 0.117 1.721 12.46
1 4.412 19.0766 12.46
1 8.706 16.5976 12.46
1 13.001 14.1176 12.46
1 0.117 6.68 12.46
1 4.412 4.2 12.46
1 8.706 1.721 12.46
1 13.001 19.0766 12.46
1 0.117 11.639 12.46
1 4.412 9.159 12.46
1 8.706 6.68 12.46
1 13.001 4.2 12.46
1 0.117 16.597 12.46
1 4.412 14.118 12.46
1 8.706 11.639 12.46
1 13.001 9.159 12.46
1 0.117 3.238 5.664
1 4.412 0.759 5.664
1 8.706 18.1146 5.664
1 13.001 15.6356 5.664
1 0.117 8.197 5.664
1 4.412 5.718 5.664
1 8.706 3.238 5.664
1 13.001 0.759 5.664
1 0.117 13.156 5.664
1 4.412 10.677 5.664
1 8.706 8.197 5.664
1 13.001 5.718 5.664
1 0.117 18.115 5.664
1 4.412 15.635 5.664
1 8.706 13.156 5.664
1 13.001 10.677 5.664
1 1.432 0.962 5.664
1 5.726 18.3186 5.664
1 10.021 15.8386 5.664
1 14.315 13.3596 5.664
1 1.432 5.921 5.664
1 5.726 3.441 5.664
1 10.021 0.962 5.664
1 14.315 18.3186 5.664
1 1.432 10.88 5.664
1 5.726 8.4 5.664
1 10.021 5.921 5.664
1 14.315 3.441 5.664
1 1.432 15.839 5.664
1 5.726 13.359 5.664
1 10.021 10.88 5.664
1 14.315 8.4 5.664
1 2.746 3.238 5.664
1 7.04 0.759 5.664
1 11.335 18.1146 5.664
1 15.629 15.6356 5.664
1 2.746 8.197 5.664
1 7.04 5.718 5.664
1 11.335 3.238 5.664
1 15.629 0.759 5.664
1 2.746 13.156 5.664
1 7.04 10.677 5.664
1 11.335 8.197 5.664
1 15.629 5.718 5.664
1 2.746 18.115 5.664
1 7.04 15.635 5.664
1 11.335 13.156 5.664
1 15.629 10.677 5.664
2 0 0 4.724
2 4.295 17.3566 4.724
2 8.589 14.8766 4.724
2 12.884 12.3976 4.724
2 0 4.959 4.724
2 4.295 2.479 4.724
2 8.589 0 4.724
2 12.884 17.3566 4.724
2 0 9.918 4.724
2 4.295 7.438 4.724
2 8.589 4.959 4.724
2 12.884 2.479 4.724
2 0 14.877 4.724
2 4.295 12.397 4.724
2 8.589 9.918 4.724
2 12.884 7.438 4.724
2 0 0 2.073
2 4.295 17.3566 2.073
2 8.589 14.8766 2.073
2 12.884 12.3976 2.073
2 0 4.959 2.073
2 3.61668 3.65374 2.25537
2 8.589 0 2.073
2 12.884 17.3566 2.073
2 0 9.918 2.073
2 4.295 7.438 2.073
2 8.589 4.959 2.073
2 12.884 2.479 2.073
2 0 14.877 2.073
2 4.295 12.397 2.073
2 8.589 9.918 2.073
2 12.884 7.438 2.073
2 0 0 8.869
2 4.295 17.3566 8.869
2 8.589 14.8766 8.869
2 12.884 12.3976 8.869
2 0 4.959 8.869
2 4.295 2.479 8.869
2 8.589 0 8.869
2 12.884 17.3566 8.869
2 0 9.918 8.869
2 4.295 7.438 8.869
2 8.589 4.959 8.869
2 12.884 2.479 8.869
2 0 14.877 8.869
2 4.295 12.397 8.869
2 8.589 9.918 8.869
2 12.884 7.438 8.869
2 0 0 11.52
2 4.295 17.3566 11.52
2 8.589 14.8766 11.52
2 12.884 12.3976 11.52
2 0 4.959 11.52
2 4.295 2.479 11.52
2 8.589 0 11.52
2 12.884 17.3566 11.52
2 0 9.918 11.52
2 4.295 7.438 11.52
2 8.589 4.959 11.52
2 12.884 2.479 11.52
2 0 14.877 11.52
2 4.295 12.397 11.52
2 8.589 9.918 11.52
2 12.884 7.438 11.52
2 2.863 0 9.255
2 7.158 17.3566 9.255
2 11.452 14.8766 9.255
2 15.747 12.3976 9.255
2 2.863 4.959 9.255
2 7.158 2.479 9.255
2 11.452 0 9.255
2 15.747 17.3566 9.255
2 2.863 9.918 9.255
2 7.158 7.438 9.255
2 11.452 4.959 9.255
2 15.747 2.479 9.255
2 2.863 14.877 9.255
2 7.158 12.397 9.255
2 11.452 9.918 9.255
2 15.747 7.438 9.255
2 2.863 0 6.604
2 7.158 17.3566 6.604
2 11.452 14.8766 6.604
2 15.747 12.3976 6.604
2 2.863 4.959 6.604
2 7.158 2.479 6.604
2 11.452 0 6.604
2 15.747 17.3566 6.604
2 2.863 9.918 6.604
2 7.158 7.438 6.604
2 11.452 4.959 6.604
2 15.747 2.479 6.604
2 2.863 14.877 6.604
2 7.158 12.397 6.604
2 11.452 9.918 6.604
2 15.747 7.438 6.604
2 2.863 0 13.401
2 7.158 17.3566 13.401
2 11.452 14.8766 13.401
2 15.747 12.3976 13.401
2 2.863 4.959 13.401
2 7.158 2.479 13.401
2 11.452 0 13.401
2 15.747 17.3566 13.401
2 2.863 9.918 13.401
2 7.158 7.438 13.401
2 11.452 4.959 13.401
2 15.747 2.479 13.401
2 2.863 14.877 13.401
2 7.158 12.397 13.401
2 11.452 9.918 13.401
2 15.747 7.438 13.401
2 2.863 0 2.458
2 7.158 17.3566 2.458
2 11.452 14.8766 2.458
2 15.747 12.3976 2.458
2 7.158 2.479 2.458
2 11.452 0 2.458
2 15.747 17.3566 2.458
2 2.863 9.918 2.458
2 7.158 7.438 2.458
2 11.452 4.959 2.458
2 15.747 2.479 2.458
2 2.863 14.877 2.458
2 7.158 12.397 2.458
2 11.452 9.918 2.458
2 15.747 7.438 2.458
2 1.432 2.479 0.193
2 5.726 0 0.193
2 10.021 17.3566 0.193
2 14.315 14.8766 0.193
2 1.432 7.438 0.193
2 5.726 4.959 0.193
2 10.021 2.479 0.193
2 14.315 0 0.193
2 1.432 12.397 0.193
2 5.726 9.918 0.193
2 10.021 7.438 0.193
2 14.315 4.959 0.193
2 1.432 17.356 0.193
2 5.726 14.877 0.193
2 10.021 12.397 0.193
2 14.315 9.918 0.193
2 1.432 2.479 11.135
2 5.726 0 11.135
2 10.021 17.3566 11.135
2 14.315 14.8766 11.135
2 1.432 7.438 11.135
2 5.726 4.959 11.135
2 10.021 2.479 11.135
2 14.315 0 11.135
2 1.432 12.397 11.135
2 5.726 9.918 11.135
2 10.021 7.438 11.135
2 14.315 4.959 11.135
2 1.432 17.356 11.135
2 5.726 14.877 11.135
2 10.021 12.397 11.135
2 14.315 9.918 11.135
2 1.432 2.479 4.338
2 5.726 0 4.338
2 10.021 17.3566 4.338
2 14.315 14.8766 4.338
2 1.432 7.438 4.338
2 5.726 4.959 4.338
2 10.021 2.479 4.338
2 14.315 0 4.338
2 1.432 12.397 4.338
2 5.726 9.918 4.338
2 10.021 7.438 4.338
2 14.315 4.959 4.338
2 1.432 17.356 4.338
2 5.726 14.877 4.338
2 10.021 12.397 4.338
2 14.315 9.918 4.338
2 1.432 2.479 6.989
2 5.726 0 6.989
2 10.021 17.3566 6.989
2 14.315 14.8766 6.989
2 1.432 7.438 6.989
2 5.726 4.959 6.989
2 10.021 2.479 6.989
2 14.315 0 6.989
2 1.432 12.397 6.989
2 5.726 9.918 6.989
2 10.021 7.438 6.989
2 14.315 4.959 6.989
2 1.432 17.356 6.989
2 5.726 14.877 6.989
2 10.021 12.397 6.989
2 14.315 9.918 479
At479
Atoms. Timestep: 680
1 1.31719 19.138 3.37362
1 5.5918 16.613 3.41299
1 9.8934 14.1286 3.40074
1 14.1834 11.646 3.39683
1 1.02162 4.09221 3.43576
1 5.71057 1.64455 3.66729
1 9.89822 19.0866 3.41814
1 14.1787 16.6026 3.38923
1 1.28085 9.19335 3.40716
1 5.61621 6.70645 3.42744
1 9.89593 4.21311 3.41303
1 14.1625 1.72942 3.38555
1 1.29825 14.1271 3.39151
1 5.61685 11.6897 3.42386
1 9.90198 9.17882 3.41325
1 14.164 6.69807 3.38726
1 -0.0278066 1.47483 3.42373
1 4.28529 18.8729 3.40244
1 8.594 16.3691 3.39751
1 12.8878 13.8958 3.39407
1 0.0232868 6.46251 3.3747
1 4.56827 3.92236 3.62895
1 8.58031 1.47588 3.41087
1 12.8848 18.8509 3.39162
1 -0.00420277 11.4268 3.39395
1 4.361 9.10343 3.51512
1 8.58851 6.47808 3.39737
1 12.8528 3.97834 3.40358
1 0.0136741 16.385 3.3829
1 4.29349 13.9054 3.40248
1 8.60244 11.4298 3.40077
1 12.8844 8.94685 3.4016
1 2.97291 1.92134 3.3501
1 7.30067 19.0571 3.43556
1 11.5849 16.6066 3.3983
1 15.8833 14.1318 3.3836
1 3.07153 7.05985 3.4935
1 7.33457 4.23412 3.44652
1 11.5698 1.72634 3.40397
1 15.8782 19.065 3.39573
1 3.00791 11.6578 3.40173
1 7.32615 9.19262 3.40489
1 11.5836 6.69777 3.39784
1 15.7564 4.18545 3.46153
1 2.99381 16.6065 3.39814
1 7.29817 14.1376 3.40394
1 11.593 11.6527 3.39977
1 15.8838 9.15538 3.37696
1 2.9867 18.0859 10.1631
1 7.29542 15.6171 10.2023
1 11.5835 13.1481 10.2009
1 15.875 10.6814 10.1868
1 2.99728 3.21347 10.1525
1 7.30325 0.737934 10.2111
1 11.5835 18.0998 10.1941
1 15.8705 15.6263 10.1836
1 2.99333 8.20118 10.1802
1 7.29881 5.71022 10.2104
1 11.5871 3.22066 10.1892
1 15.8634 0.73547 10.1816
1 2.99447 13.1535 10.1972
1 7.29921 10.6703 10.2194
1 11.5872 8.19242 10.2011
1 15.8614 5.70422 10.1729
1 -0.0232023 3.45076 10.1298
1 4.30243 0.969847 10.1904
1 8.59543 18.3269 10.1999
1 12.8767 15.8521 10.1921
1 0.00117917 8.4483 10.1652
1 4.30315 5.95828 10.1646
1 8.60349 3.46026 10.224
1 12.8768 0.970447 10.1968
1 -0.0074332 13.3824 10.1932
1 4.28983 10.9154 10.2071
1 8.59236 8.42592 10.2149
1 12.8778 5.94538 10.1943
1 -0.0131209 18.322 10.1702
1 4.29698 15.8457 10.1869
1 8.58896 13.3739 10.2008
1 12.8849 10.9048 10.1952
1 1.27039 0.737151 10.1538
1 5.59687 18.0796 10.1783
1 9.88421 15.6223 10.2038
1 14.1758 13.1511 10.1841
1 1.28192 5.71955 10.1435
1 5.60015 3.22812 10.1948
1 9.89049 0.744098 10.2037
1 14.169 18.0974 10.1835
1 1.29659 10.6831 10.2046
1 5.59818 8.20167 10.2219
1 9.89352 5.71215 10.1945
1 14.1673 3.21656 10.1867
1 1.27931 15.6217 10.1702
1 5.59373 13.1501 10.1953
1 9.89125 10.6717 10.1987
1 14.1798 8.19286 10.1878
1 4.16612 19.0733 7.943
1 8.46017 16.5941 7.93748
1 12.7518 14.1271 7.92288
1 17.0394 11.6581 7.92276
1 4.1655 4.2228 7.97297
1 8.4737 1.73395 7.95391
1 12.7464 19.0806 7.92267
1 17.0385 16.605 7.90299
1 4.17333 9.19038 7.9653
1 8.47208 6.70211 7.94604
1 12.7429 4.21918 7.93807
1 17.0332 1.7178 7.9207
1 4.16356 14.1219 7.92826
1 8.4658 11.6489 7.94009
1 12.7498 9.17517 7.93042
1 17.0306 6.70173 7.91949
1 2.85616 1.47983 7.95139
1 7.15733 18.8281 7.95814
1 11.4504 16.3702 7.92891
1 15.7469 13.9014 7.92352
1 2.85637 6.46825 7.93377
1 7.18445 3.98682 7.99905
1 11.4558 1.49316 7.93153
1 15.7431 18.8458 7.9096
1 2.86032 11.4306 7.93824
1 7.17123 8.95188 7.95437
1 11.4564 6.46762 7.92781
1 15.7272 3.97629 7.91407
1 2.8683 16.3604 7.91752
1 7.16554 13.8937 7.93094
1 11.4583 11.4229 7.93256
1 15.7384 8.94822 7.92563
1 1.56127 19.0725 7.90446
1 5.86149 16.5932 7.92058
1 10.1597 14.1238 7.93975
1 14.451 11.6526 7.91973
1 1.56298 4.21088 7.92816
1 5.87677 1.71643 7.97957
1 10.1543 19.0815 7.93624
1 14.4441 16.6021 7.92694
1 1.56118 9.19727 7.95034
1 5.88855 6.69913 7.97382
1 10.1648 4.21965 7.93883
1 14.4403 1.72177 7.93204
1 1.56446 14.1259 7.92882
1 5.88048 11.6543 7.95558
1 10.165 9.17734 7.94081
1 14.4414 6.69428 7.92313
1 1.53515 0.727188 1.09442
1 5.87157 18.0885 1.12747
1 10.1504 15.6299 1.13386
1 14.4416 13.1479 1.13026
1 1.44912 5.7992 0.838044
1 5.88261 3.34464 1.19529
1 10.155 0.751434 1.14458
1 14.4329 18.097 1.11803
1 1.5659 10.6589 1.11444
1 5.86127 8.13185 1.14744
1 10.1686 5.7052 1.14803
1 14.4338 3.22326 1.10848
1 1.54449 15.5904 1.10977
1 5.85896 13.146 1.14015
1 10.157 10.6723 1.14134
1 14.4302 8.19323 1.11156
1 2.80775 18.1926 1.0349
1 7.16007 15.8514 1.1374
1 11.4473 13.3801 1.13665
1 15.7413 10.9097 1.13322
1 2.68065 3.45367 0.869231
1 7.12694 1.00249 1.14889
1 11.4458 18.332 1.13308
1 15.7338 15.8458 1.1299
1 2.87248 8.39049 1.12584
1 7.1986 5.95175 1.09567
1 11.4598 3.4565 1.13135
1 15.7448 0.961709 1.12519
1 2.86292 13.3705 1.1302
1 7.14348 10.888 1.14852
1 11.4508 8.42222 1.13922
1 15.7449 5.98317 1.11169
1 4.08136 0.432082 1.04406
1 8.44842 18.1225 1.15205
1 12.7414 15.6234 1.13052
1 17.039 13.1393 1.12603
1 4.24355 5.50803 1.11025
1 8.47588 3.24851 1.0871
1 12.7443 0.740364 1.13194
1 17.0115 18.0828 1.1255
1 4.16438 10.6655 1.13238
1 8.46082 8.21004 1.12914
1 12.7617 5.70622 1.13007
1 17.017 3.20603 1.0847
1 4.15203 15.6179 1.13024
1 8.45199 13.143 1.14743
1 12.7495 10.669 1.13198
1 17.0349 8.22639 1.08597
1 2.68826 1.66139 12.3761
1 7.02675 19.0856 12.4582
1 11.3108 16.604 12.453
1 15.6022 14.1244 12.4521
1 2.74111 6.71624 12.3997
1 7.02717 4.20726 12.4654
1 11.3197 1.72538 12.4604
1 15.5963 19.0721 12.438
1 2.72851 11.6551 12.4671
1 7.02427 9.16206 12.4855
1 11.3232 6.69422 12.467
1 15.5942 4.21691 12.4335
1 2.71075 16.5601 12.3971
1 7.02159 14.1159 12.4658
1 11.3132 11.6503 12.4625
1 15.6015 9.18746 12.442
1 1.38136 3.95354 12.3025
1 5.72143 1.4978 12.4846
1 10.0181 18.8508 12.4664
1 14.3021 16.3686 12.4533
1 1.43657 8.95705 12.4632
1 5.7404 6.45547 12.4458
1 10.0432 3.98043 12.4519
1 14.3046 1.49024 12.4595
1 1.42448 13.8862 12.446
1 5.72435 11.4214 12.4483
1 10.024 8.94234 12.4657
1 14.3113 6.46573 12.449
1 1.40564 18.8176 12.4074
1 5.72259 16.3579 12.456
1 10.0138 13.8965 12.469
1 14.3097 11.4259 12.4596
1 0.0985287 1.70747 12.4397
1 4.42789 19.0439 12.3666
1 8.71247 16.6106 12.4754
1 13.0089 14.1265 12.4614
1 0.0932059 6.75153 12.3335
1 4.43465 4.2106 12.401
1 8.72864 1.72527 12.4734
1 13.0076 19.0787 12.4551
1 0.127099 11.6515 12.4561
1 4.43431 9.17825 12.4641
1 8.73691 6.69142 12.4612
1 13.0121 4.20772 12.4381
1 0.110118 16.5868 12.4623
1 4.42672 14.1211 12.4595
1 8.72181 11.6438 12.4775
1 13.0129 9.17572 12.4546
1 0.124586 3.21695 5.71315
1 4.42345 0.727111 5.72081
1 8.7318 18.0883 5.68034
1 13.0219 15.625 5.66097
1 0.127836 8.19404 5.67231
1 4.47018 5.77287 5.73872
1 8.74019 3.22066 5.69124
1 13.0108 0.742675 5.65987
1 0.13533 13.1597 5.66037
1 4.44987 10.7196 5.73638
1 8.73913 8.20046 5.68573
1 13.008 5.71438 5.65791
1 0.139013 18.1184 5.63432
1 4.42986 15.6204 5.65863
1 8.7334 13.1509 5.67182
1 13.0234 10.6719 5.67234
1 1.44024 0.982592 5.66331
1 5.72309 18.3195 5.6592
1 10.0254 15.8497 5.66491
1 14.3221 13.3793 5.65477
1 1.43179 5.95193 5.65021
1 5.77734 3.48126 5.83761
1 10.0217 0.972543 5.67339
1 14.3115 18.331 5.65817
1 1.43524 10.9198 5.66962
1 5.75461 8.45619 5.72089
1 10.027 5.94497 5.6639
1 14.2776 3.45373 5.69467
1 1.43319 15.8557 5.67392
1 5.73389 13.39 5.67849
1 10.0336 10.906 5.67127
1 14.3148 8.42585 5.66044
1 2.74058 3.22565 5.70689
1 7.06479 0.693651 5.78335
1 11.3202 18.0992 5.66732
1 15.615 15.6325 5.64595
1 2.73213 8.2355 5.77209
1 7.05781 5.73191 5.68512
1 11.317 3.22817 5.68443
1 15.5979 0.746273 5.66051
1 2.73134 13.1551 5.6652
1 7.0496 10.6883 5.66081
1 11.325 8.19599 5.67033
1 15.5975 5.71422 5.66533
1 2.72754 18.0967 5.6612
1 7.03071 15.6243 5.66732
1 11.3264 13.1483 5.66233
1 15.6223 10.6649 5.64821
2 0.0102575 0.0342285 4.85006
2 4.28193 17.3512 4.84548
2 8.58891 14.8806 4.86949
2 12.8933 12.3887 4.86355
2 -0.0268017 4.93428 4.8173
2 4.38478 2.48428 4.88531
2 8.58174 0.000460438 4.88919
2 12.8853 17.3616 4.86071
2 0.0285252 9.89387 4.8568
2 4.28435 7.52578 4.88458
2 8.59773 4.9491 4.87063
2 12.8665 2.48065 4.86516
2 0.0236445 14.8951 4.85549
2 4.29891 12.403 4.87549
2 8.61072 9.91594 4.87597
2 12.882 7.44498 4.86084
2 0.0268505 -0.000491182 1.93765
2 4.24541 17.4139 1.89827
2 8.58686 14.8835 1.93472
2 12.8827 12.3959 1.92782
2 0.29688 4.92805 1.91658
2 3.8613 3.50874 2.11722
2 8.5598 0.052824 1.96711
2 12.8778 17.3605 1.9249
2 0.0138153 9.90961 1.93604
2 4.15575 7.15601 1.9979
2 8.56146 4.93276 1.94347
2 12.898 2.48032 1.93491
2 -0.00378734 14.8671 1.92482
2 4.28359 12.3818 1.94432
2 8.59148 9.91856 1.94211
2 12.8951 7.43517 1.92844
2 0.00577641 -0.0024501 8.70327
2 4.29469 17.3522 8.71603
2 8.58736 14.8719 8.73702
2 12.8896 12.3984 8.72374
2 -0.00247355 4.95455 8.69444
2 4.29499 2.47861 8.75149
2 8.58611 0.00159912 8.73533
2 12.8805 17.3567 8.72059
2 -0.0029481 9.91923 8.72436
2 4.28713 7.43964 8.7211
2 8.60041 4.96801 8.7472
2 12.8825 2.48118 8.7253
2 0.00173768 14.8845 8.71585
2 4.29621 12.3981 8.73218
2 8.5959 9.91644 8.74509
2 12.8886 7.43859 8.7266
2 -0.00733764 -0.000813149 11.6369
2 4.28564 17.3312 11.6378
2 8.5784 14.879 11.6801
2 12.8796 12.3966 11.6644
2 -0.0145108 4.97418 11.6274
2 4.26736 2.47001 11.704
2 8.57907 0.00687989 11.6737
2 12.8739 17.3572 11.6576
2 0.00886348 9.91738 11.6591
2 4.2977 7.43714 11.6564
2 8.58824 4.94948 11.6747
2 12.8845 2.4778 11.6627
2 -0.00607999 14.8723 11.6549
2 4.28956 12.3934 11.6688
2 8.58278 9.91031 11.6835
2 12.8868 7.43914 11.6654
2 2.86696 0.000422855 9.40152
2 7.15953 17.3538 9.40038
2 11.4471 14.8757 9.39983
2 15.7492 12.402 9.38703
2 2.85749 4.95878 9.3633
2 7.16016 2.48195 9.43068
2 11.4482 0.000180455 9.39829
2 15.7394 17.3583 9.37771
2 2.86151 9.92244 9.40981
2 7.15073 7.44139 9.424
2 11.4561 4.95733 9.39915
2 15.7374 2.47147 9.38025
2 2.86083 14.8756 9.39241
2 7.15551 12.3903 9.40806
2 11.456 9.91714 9.40397
2 15.7508 7.43477 9.39099
2 2.86096 0.00478952 6.46763
2 7.14911 17.3553 6.46543
2 11.4574 14.8773 6.45935
2 15.7569 12.3942 6.44393
2 2.88036 4.97437 6.40567
2 7.17617 2.46516 6.50614
2 11.4503 -0.00115697 6.45889
2 15.7571 17.3684 6.43642
2 2.87053 9.94515 6.48982
2 7.16375 7.44153 6.49004
2 11.4522 4.96115 6.46202
2 15.7427 2.48635 6.45607
2 2.86678 14.8806 6.4559
2 7.1639 12.4021 6.46951
2 11.4625 9.91824 6.46757
2 15.7565 7.43114 6.45229
2 2.8664 -0.0696187 13.2363
2 7.1298 17.3783 13.2665
2 11.4434 14.885 13.2602
2 15.7472 12.3935 13.2548
2 2.78002 4.96552 13.2687
2 7.15786 2.48143 13.3107
2 11.4515 0.00116586 13.2635
2 15.7274 17.3586 13.2483
2 2.87578 9.92168 13.2827
2 7.16125 7.42903 13.2692
2 11.4755 4.95576 13.2603
2 15.7346 2.48927 13.2617
2 2.8569 14.8702 13.2501
2 7.13311 12.3755 13.2684
2 11.4522 9.91342 13.2631
2 15.7531 7.43658 13.2371
2 2.97058 0.217894 2.53307
2 7.1446 17.3624 2.59792
2 11.4538 14.8787 2.60296
2 15.7493 12.3903 2.59601
2 6.93518 2.50663 2.64903
2 11.4424 0.00482842 2.60364
2 15.7459 17.3562 2.58858
2 2.91855 9.83892 2.64042
2 7.11545 7.44946 2.58921
2 11.4392 4.95894 2.59679
2 15.7849 2.53477 2.60714
2 2.87065 14.8866 2.59001
2 7.16136 12.4081 2.60517
2 11.4584 9.9152 2.60629
2 15.7755 7.37668 2.55925
2 1.38952 2.40231 0.22478
2 5.69057 0.0445248 0.369569
2 9.99662 17.3741 0.349356
2 14.3087 14.8728 0.331931
2 1.41654 7.49137 0.265342
2 5.77323 4.95938 0.254537
2 10.0215 2.48597 0.34265
2 14.3224 0.00725823 0.340578
2 1.43422 12.3859 0.339252
2 5.70271 9.8504 0.394371
2 10.0155 7.42577 0.35318
2 14.3637 4.96646 0.365267
2 1.39053 17.3234 0.312225
2 5.71917 14.8797 0.346816
2 10.0122 12.3972 0.340898
2 14.323 9.9121 0.336122
2 1.42501 2.49478 10.9286
2 5.71298 -0.0141261 11.0078
2 10.0148 17.3582 11.0019
2 14.311 14.8785 10.9859
2 1.43108 7.43023 10.9495
2 5.70037 4.94746 10.9672
2 10.0265 2.47804 11.0033
2 14.3106 -0.00379213 10.9908
2 1.42879 12.4019 10.996
2 5.72032 9.92434 11.026
2 10.0235 7.43437 11.0058
2 14.3089 4.95336 10.9979
2 1.42562 17.3528 10.9703
2 5.72501 14.8688 10.9985
2 10.0157 12.3956 10.9994
2 14.3217 9.91959 10.9906
2 1.43527 2.52563 4.21661
2 5.73275 -0.0456157 4.25613
2 10.0148 17.3623 4.19545
2 14.3238 14.8772 4.18963
2 1.45484 7.38376 4.16656
2 5.75911 5.04795 4.30991
2 9.98547 2.47407 4.17625
2 14.3262 0.0128291 4.17629
2 1.4386 12.3896 4.18285
2 5.77338 9.959 4.22354
2 10.0108 7.43311 4.18969
2 14.2866 4.96205 4.19335
2 1.44942 17.42 4.14298
2 5.72316 14.8847 4.19286
2 10.0276 12.4022 4.19877
2 14.3411 9.89963 4.17964
2 1.44267 2.4925 7.13149
2 5.72783 0.00594936 7.17163
2 10.0149 17.3538 7.13389
2 14.3217 14.8803 7.12431
2 1.44263 7.4533 7.11619
2 5.73079 4.94464 7.19819
2 10.0292 2.48513 7.13072
2 14.3129 0.00263727 7.11778
2 1.43118 12.4055 7.12555
2 5.73007 9.92253 7.15641
2 10.0253 7.44336 7.13394
2 14.3113 4.95872 7.12462
2 1.4385 17.3523 7.09965
2 5.72798 14.8719 7.12921
2 10.0252 12.3961479
Atoms. Timeste479
479
Ato479
Ato479
Atoms.479
Atoms. Timestep: 1071
1 1.3136 19.142 3.37626
1 5.59125 16.6147 3.4144
1 9.8935 14.1278 3.40077
1 14.184 11.6455 3.39698
1 1.07476 4.09353 3.41593
1 5.70802 1.6433 3.67985
1 9.90045 19.0848 3.41871
1 14.1787 16.6021 3.38933
1 1.28272 9.19118 3.40593
1 5.61899 6.70803 3.4306
1 9.89852 4.21428 3.41708
1 14.1635 1.73013 3.38452
1 1.29845 14.1276 3.39135
1 5.61574 11.6879 3.42318
1 9.90216 9.17849 3.4132
1 14.1684 6.69529 3.38704
1 17.1454 1.47719 3.42783
1 4.28371 18.8791 3.40369
1 8.59404 16.3675 3.39766
1 12.888 13.8952 3.39419
1 0.0246985 6.45729 3.3767
1 4.55072 3.9424 3.64526
1 8.58285 1.46889 3.41412
1 12.8849 18.851 3.3916
1 17.1746 11.4257 3.39374
1 4.35834 9.09748 3.50948
1 8.58949 6.47813 3.40045
1 12.8592 3.9793 3.40258
1 0.0141884 16.3859 3.38269
1 4.29388 13.905 3.40197
1 8.60219 11.4294 3.40095
1 12.886 8.94573 3.40056
1 2.95471 1.94783 3.35384
1 7.30015 19.0537 3.43928
1 11.5852 16.6061 3.39857
1 15.8836 14.1318 3.38354
1 3.07418 7.04662 3.49236
1 7.33144 4.23486 3.44861
1 11.5706 1.72798 3.40299
1 15.8779 19.0642 3.39766
1 3.00727 11.6573 3.40145
1 7.32564 9.19218 3.40488
1 11.586 6.69817 3.39834
1 15.7817 4.18617 3.45677
1 2.99373 16.6077 3.39828
1 7.29751 14.1368 3.40432
1 11.5933 11.6521 3.4001
1 15.885 9.1547 3.37746
1 2.98553 18.0851 10.1613
1 7.29556 15.6167 10.2019
1 11.5836 13.1477 10.2011
1 15.8752 10.681 10.1869
1 2.9956 3.21434 10.1518
1 7.30369 0.737532 10.2086
1 11.5842 18.0995 10.1939
1 15.8703 15.6259 10.1837
1 2.99298 8.20094 10.1809
1 7.29924 5.7144 10.2086
1 11.5889 3.2201 10.1881
1 15.8634 0.735499 10.1804
1 2.99432 13.153 10.1968
1 7.29848 10.6699 10.2203
1 11.5878 8.19291 10.2014
1 15.8616 5.7042 10.1724
1 17.1532 3.45083 10.1265
1 4.30166 0.970084 10.1903
1 8.59595 18.3265 10.1992
1 12.8769 15.8518 10.1919
1 0.000909975 8.44773 10.1654
1 4.30305 5.95825 10.1675
1 8.60519 3.4613 10.2195
1 12.8774 0.970441 10.1965
1 17.1705 13.3817 10.1932
1 4.28963 10.9147 10.2071
1 8.59236 8.42688 10.2152
1 12.8782 5.94545 10.1939
1 17.1648 18.3221 10.1698
1 4.29701 15.845 10.1865
1 8.58886 13.3734 10.2009
1 12.885 10.9046 10.1953
1 1.26986 0.737923 10.1522
1 5.59646 18.0786 10.1764
1 9.8842 15.6221 10.204
1 14.1759 13.1509 10.1842
1 1.28201 5.72066 10.1437
1 5.59794 3.22819 10.1957
1 9.89145 0.744379 10.2028
1 14.1695 18.0972 10.1833
1 1.29655 10.6823 10.2046
1 5.59771 8.20127 10.2224
1 9.89385 5.71382 10.1935
1 14.1681 3.21714 10.1861
1 1.2785 15.621 10.1696
1 5.59347 13.1494 10.1953
1 9.8913 10.6718 10.1983
1 14.1802 8.19282 10.1878
1 4.16526 19.0733 7.94313
1 8.46019 16.5936 7.93736
1 12.7519 14.1267 7.923
1 17.0398 11.6578 7.9226
1 4.16393 4.22332 7.9731
1 8.47381 1.73419 7.95278
1 12.747 19.0809 7.92265
1 17.0379 16.6047 7.90332
1 4.17293 9.18974 7.96447
1 8.47217 6.70266 7.94511
1 12.7446 4.2189 7.93723
1 17.0349 1.72017 7.91842
1 4.1634 14.1215 7.92787
1 8.46559 11.6486 7.94035
1 12.7505 9.17491 7.93038
1 17.0312 6.7014 7.91792
1 2.85517 1.48006 7.95389
1 7.15694 18.8273 7.95846
1 11.4505 16.3699 7.92888
1 15.7468 13.9011 7.92343
1 2.85635 6.46834 7.93404
1 7.18368 3.98738 7.99944
1 11.4566 1.49308 7.93093
1 15.7432 18.8464 7.90923
1 2.86045 11.4299 7.93801
1 7.17107 8.95194 7.9546
1 11.4573 6.46791 7.92785
1 15.7286 3.97661 7.90973
1 2.86811 16.3599 7.91728
1 7.16535 13.893 7.93096
1 11.4585 11.4226 7.93247
1 15.739 8.94799 7.9255
1 1.56052 19.0728 7.90277
1 5.86118 16.5926 7.91996
1 10.1597 14.1235 7.93993
1 14.4512 11.6523 7.91998
1 1.56164 4.21058 7.92831
1 5.87592 1.71699 7.98019
1 10.1548 19.0814 7.93634
1 14.4442 16.6022 7.92649
1 1.56129 9.19652 7.94945
1 5.88823 6.69978 7.97344
1 10.1662 4.22053 7.93852
1 14.441 1.72299 7.93157
1 1.56429 14.1253 7.92886
1 5.87982 11.6537 7.95522
1 10.1655 9.17716 7.94093
1 14.4427 6.69418 7.9224
1 1.53642 0.728672 1.09728
1 5.87294 18.0859 1.12643
1 10.151 15.6292 1.134
1 14.4419 13.1471 1.13033
1 1.44978 5.79774 0.841424
1 5.98466 3.34543 1.15431
1 10.1609 0.747385 1.1444
1 14.4332 18.0962 1.11798
1 1.56637 10.6586 1.11533
1 5.85144 8.13015 1.1511
1 10.1703 5.70683 1.14754
1 14.4347 3.22336 1.11024
1 1.54317 15.5883 1.10884
1 5.85898 13.1461 1.13997
1 10.1569 10.6722 1.14162
1 14.4324 8.19151 1.1119
1 2.80333 18.1846 1.02853
1 7.16042 15.8499 1.13746
1 11.4475 13.3795 1.13682
1 15.7414 10.9083 1.13335
1 2.6412 3.47346 0.873501
1 7.13002 0.991813 1.1517
1 11.4476 18.3302 1.13189
1 15.7336 15.8452 1.13004
1 2.87403 8.39081 1.12634
1 7.19552 5.95686 1.0987
1 11.4676 3.45782 1.12988
1 15.7454 0.960749 1.12745
1 2.86325 13.3697 1.12971
1 7.14315 10.8877 1.14857
1 11.4506 8.42272 1.13944
1 15.7486 5.97749 1.11355
1 4.08156 0.411698 1.04117
1 8.44938 18.121 1.15295
1 12.7418 15.6227 1.13076
1 17.0386 13.1383 1.12642
1 4.22687 5.48395 1.15197
1 8.51381 3.25076 1.08049
1 12.7468 0.74013 1.13229
1 17.0107 18.0824 1.12597
1 4.16403 10.6656 1.13258
1 8.4588 8.21025 1.13116
1 12.7633 5.7083 1.12919
1 17.0101 3.20425 1.0825
1 4.15114 15.6174 1.12999
1 8.45189 13.1425 1.14759
1 12.7499 10.6685 1.13227
1 17.0354 8.22411 1.08829
1 2.68667 1.66245 12.3784
1 7.02736 19.0833 12.4557
1 11.3112 16.6034 12.4526
1 15.6022 14.1239 12.4522
1 2.741 6.71307 12.401
1 7.02788 4.21481 12.4461
1 11.3219 1.7248 12.4621
1 15.5961 19.0723 12.438
1 2.72832 11.6546 12.4668
1 7.02208 9.15939 12.4876
1 11.3236 6.69496 12.4662
1 15.5937 4.21696 12.4322
1 2.7096 16.5582 12.3937
1 7.02172 14.1153 12.4652
1 11.3133 11.6499 12.4628
1 15.6024 9.18688 12.4426
1 1.37909 3.95541 12.2922
1 5.72184 1.49346 12.4809
1 10.0187 18.8501 12.4656
1 14.302 16.3683 12.4531
1 1.43646 8.95571 12.4638
1 5.73006 6.45473 12.4551
1 10.0488 3.98235 12.4436
1 14.3052 1.49104 12.4594
1 1.42421 13.8855 12.4458
1 5.72432 11.4203 12.4488
1 10.0239 8.94265 12.4661
1 14.3123 6.46591 12.4494
1 1.40445 18.8179 12.4056
1 5.72241 16.3566 12.4555
1 10.0136 13.8958 12.4692
1 14.31 11.4254 12.4595
1 0.0977084 1.7067 12.4394
1 4.42656 19.0418 12.3609
1 8.71259 16.61 12.4757
1 13.009 14.1262 12.4616
1 0.0936276 6.74956 12.3347
1 4.42512 4.21242 12.4069
1 8.73123 1.72551 12.4692
1 13.0084 19.0783 12.4547
1 0.127176 11.6508 12.4565
1 4.43294 9.17803 12.4638
1 8.73686 6.69186 12.4618
1 13.014 4.20858 12.438
1 0.109328 16.5865 12.4627
1 4.42646 14.1204 12.4594
1 8.72127 11.6429 12.478
1 13.0137 9.17556 12.4554
1 0.127343 3.21838 5.69898
1 4.41939 0.727069 5.72215
1 8.73234 18.0878 5.68096
1 13.0221 15.6246 5.66119
1 0.128973 8.19294 5.67096
1 4.47141 5.77469 5.74279
1 8.74141 3.22117 5.69207
1 13.0113 0.742981 5.65899
1 0.135598 13.1593 5.65977
1 4.44904 10.7179 5.73379
1 8.73939 8.20124 5.68609
1 13.0107 5.71414 5.65988
1 0.137545 18.117 5.63511
1 4.42953 15.62 5.65799
1 8.73336 13.1505 5.67192
1 13.0239 10.6714 5.67208
1 1.43592 0.983428 5.66402
1 5.72186 18.3193 5.65983
1 10.0254 15.8492 5.66484
1 14.3221 13.3788 5.65486
1 1.43403 5.94952 5.64769
1 5.77875 3.48203 5.83782
1 10.0223 0.972517 5.67402
1 14.3116 18.3311 5.65805
1 1.43523 10.9188 5.66928
1 5.75408 8.45611 5.72006
1 10.0289 5.94623 5.66453
1 14.2813 3.45459 5.68876
1 1.4332 15.8548 5.67471
1 5.73362 13.3893 5.67853
1 10.0336 10.906 5.67125
1 14.3159 8.42509 5.65964
1 2.73868 3.22516 5.71179
1 7.06406 0.691478 5.78666
1 11.3209 18.0988 5.668
1 15.6147 15.632 5.64602
1 2.73194 8.23432 5.76864
1 7.05947 5.73218 5.68508
1 11.3191 3.22895 5.68553
1 15.5983 0.7463 5.66144
1 2.73126 13.1544 5.66503
1 7.04898 10.688 5.66118
1 11.3261 8.19603 5.66994
1 15.6006 5.7136 5.66074
1 2.72617 18.0964 5.66083
1 7.03044 15.6239 5.66743
1 11.3265 13.1481 5.6625
1 15.6227 10.6646 5.64836
2 0.0056895 0.0270196 4.85142