LAMMPS (28 Jun 2014)
Processor partition = 5
Reading data file ...
  orthogonal box = (0 0 0) to (17.1781 19.8356 13.5931)
  1 by 1 by 1 MPI processor grid
  reading atoms ...
  479 atoms
288 atoms in group oxygen
191 atoms in group chromium
WARNING: Resetting reneighboring criteria during minimization (../min.cpp:168)
PPPM initialization ...
WARNING: System is not charge neutral, net charge = -3 (../kspace.cpp:278)
  G vector (1/distance) = 0.315056
  grid = 18 18 15
  stencil order = 5
  estimated absolute RMS force accuracy = 0.00121169
  estimated relative force accuracy = 8.41472e-05
  using double precision FFTs
  3d grid and FFT values/proc = 13750 4860
Setting up minimization ...
Memory usage per processor = 4.77571 Mbytes
Step PotEng Pxx Pyy Pzz Pxy Pxz Pyz Lx Ly Lz Temp 
       0   -14740.575   -135022.53   -135383.58   -27273.799   -1053.4984    4384.7159   -547.12226      17.1781      19.8356     13.59308            0 
     100   -14820.655   -81851.647   -81436.753   -175272.37    321.63558    1355.0436    891.00457      17.1781      19.8356     13.59308   0.20439864 
     200   -14820.582   -81792.556   -81474.478   -174584.86    337.92822    1433.6753     1219.027      17.1781      19.8356     13.59308 0.00013575234 
     300   -14820.565   -81795.715   -81493.411   -174503.34    349.82934    1473.5548    1252.3717      17.1781      19.8356     13.59308 0.00034995778 
     400   -14820.566    -81795.44   -81493.554   -174505.04    348.84566    1469.4035    1251.2022      17.1781      19.8356     13.59308 3.5038804e-06 
     500   -14820.568   -81795.295    -81490.68   -174516.21    346.16331    1462.6022    1246.1561      17.1781      19.8356     13.59308 3.1040526e-06 
     600    -14820.57   -81795.941    -81488.94   -174523.13    344.90369     1458.534    1242.7527      17.1781      19.8356     13.59308 1.5498088e-05 
     680    -14820.57   -81796.014   -81488.378   -174525.85    344.41314    1457.0462    1241.6234      17.1781      19.8356     13.59308 8.2178591e-08 
Loop time of 30.8201 on 1 procs for 680 steps with 479 atoms

Minimization stats:
  Stopping criterion = force tolerance
  Energy initial, next-to-last, final = 
        -14740.5745012     -14820.5701726     -14820.5702057
  Force two-norm initial, final = 86.798 0.000877281
  Force max component initial, final = 13.3485 0.000519545
  Final line search alpha, max atom move = 0 0
  Iterations, force evaluations = 680 680

Pair  time (%) = 14.6343 (47.4829)
Kspce time (%) = 1.60803 (5.21747)
Neigh time (%) = 0 (0)
Comm  time (%) = 0.0481961 (0.156379)
Outpt time (%) = 0.000210524 (0.000683073)
Other time (%) = 14.5294 (47.1426)

Nlocal:    479 ave 479 max 479 min
Histogram: 1 0 0 0 0 0 0 0 0 0
Nghost:    6479 ave 6479 max 6479 min
Histogram: 1 0 0 0 0 0 0 0 0 0
Neighs:    179002 ave 179002 max 179002 min
Histogram: 1 0 0 0 0 0 0 0 0 0

Total # of neighbors = 179002
Ave neighs/atom = 373.699
Neighbor list builds = 0
Dangerous builds = 0
WARNING: Resetting reneighboring criteria during minimization (../min.cpp:168)
Setting up minimization ...
Memory usage per processor = 4.77571 Mbytes
Step PotEng Pxx Pyy Pzz Pxy Pxz Pyz Lx Ly Lz Temp 
     680    -14820.57   -81796.014   -81488.378   -174525.85    344.41314    1457.0462    1241.6234      17.1781      19.8356     13.59308            0 
     700   -14820.571   -81795.547   -81488.125   -174527.07    343.95542    1455.9554    1240.9874      17.1781      19.8356     13.59308 4.2079991e-06 
     800   -14820.594   -81788.666   -81465.035   -174632.62    321.46541    1392.0699    1200.7919      17.1781      19.8356     13.59308 2.3714677e-05 
     900   -14820.602   -81788.068   -81458.898   -174670.15    315.86286    1374.8088     1186.599      17.1781      19.8356     13.59308 3.212316e-06 
    1000   -14820.604   -81788.433   -81456.733   -174685.17    313.79113    1368.0337    1181.2129      17.1781      19.8356     13.59308 2.7136646e-07 
    1071   -14820.606   -81788.723   -81455.684   -174691.97    312.85037    1364.7066    1178.7432      17.1781      19.8356     13.59308 1.3951508e-08 
Loop time of 15.529 on 1 procs for 391 steps with 479 atoms

Minimization stats:
  Stopping criterion = force tolerance
  Energy initial, next-to-last, final = 
        -14820.5702057     -14820.6057656     -14820.6057796
  Force two-norm initial, final = 0.000877281 0.000986103
  Force max component initial, final = 0.000519545 0.00062785
  Final line search alpha, max atom move = 0 0
  Iterations, force evaluations = 391 391

Pair  time (%) = 8.06871 (51.959)
Kspce time (%) = 0.908822 (5.85241)
Neigh time (%) = 0 (0)
Comm  time (%) = 0.0293033 (0.1887)
Outpt time (%) = 0.000118971 (0.00076612)
Other time (%) = 6.52205 (41.9992)

Nlocal:    479 ave 479 max 479 min
Histogram: 1 0 0 0 0 0 0 0 0 0
Nghost:    6479 ave 6479 max 6479 min
Histogram: 1 0 0 0 0 0 0 0 0 0
Neighs:    180557 ave 180557 max 180557 min
Histogram: 1 0 0 0 0 0 0 0 0 0

Total # of neighbors = 180557
Ave neighs/atom = 376.946
Neighbor list builds = 0
Dangerous builds = 0
