

variable      mytemp equal  2000

# -------------------- FORCE FIELDS ----------------------
pair_style buck/coul/long 10.0 10.0

read_data	NPT_relaxed_2000.data
  orthogonal box = (0.034204 0.0394957 0.0360878) to (77.2668 89.2207 81.5224)
  1 by 7 by 1 MPI processor grid
  reading atoms ...
  58275 atoms
  reading velocities ...
  58275 velocities

pair_coeff    * * 1e-30 1e-30 0.0
pair_coeff    1 2 1204.18 0.3165   0.0
pair_coeff    1 1 9547.96 0.21916  32.0

kspace_style    pppm 0.0001

## Define group
group oxygen type 1
34965 atoms in group oxygen
group chromium type 2
23310 atoms in group chromium


## --------------------- NVT  --------------------
compute allmsd all displace/atom

#dump          2 all custom 25000  dump/dump id type xu yu zu c_allmsd[1] c_allmsd[2] c_allmsd[3] c_allmsd[4]
#dump          1 all xyz 25000 xyz/all.xyz
#dump_modify   1 element O Cr



compute   Omsd oxygen msd com yes
compute   Crmsd chromium msd com yes
variable  OMSDX equal "c_Omsd[1]"
variable  OMSDY equal "c_Omsd[2]"
variable  OMSDZ equal "c_Omsd[3]"
variable  OMSDAll equal "c_Omsd[4]"

variable  CrMSDX equal "c_Crmsd[1]"
variable  CrMSDY equal "c_Crmsd[2]"
variable  CrMSDZ equal "c_Crmsd[3]"
variable  CrMSDAll equal "c_Crmsd[4]"

thermo          1000
thermo_style    custom step pe ke press lx ly lz temp c_Omsd[1]  c_Omsd[2]  c_Omsd[3]  c_Omsd[4]  c_Crmsd[1]  c_Crmsd[2]  c_Crmsd[3]  c_Crmsd[4]


fix          1 all print 100 "${OMSDX}   ${OMSDY}   ${OMSDZ}  ${OMSDAll}  ${CrMSDX}   ${CrMSDY}   ${CrMSDZ}  ${CrMSDAll}" file MSD2000.data screen no
fix          3 all nvt temp ${mytemp} ${mytemp} 0.01
fix          3 all nvt temp 2000 ${mytemp} 0.01
fix          3 all nvt temp 2000 2000 0.01

run      1000000
PPPM initialization ...
  G vector (1/distance) = 0.308765
  grid = 72 80 75
  stencil order = 5
  estimated absolute RMS force accuracy = 0.00179616
  estimated relative force accuracy = 0.000124736
  using double precision FFTs
  3d grid and FFT values/proc = 123082 64800
Memory usage per processor = 22.5239 Mbytes
Step PotEng KinEng Press Lx Ly Lz Temp Omsd[1] Omsd[2] Omsd[3] Omsd[4] Crmsd[1] Crmsd[2] Crmsd[3] Crmsd[4] 
       0   -1790407.6     15024.46    -2156.898    77.232592    89.181209    81.486324    1994.6164 5.0772997e-29 2.0194839e-28 4.5481851e-28 7.0753989e-28 5.0801153e-29 1.0385484e-28 5.0937605e-29 2.055936e-28 
    1000   -1790378.4    15105.688   -1495.1538    77.232592    89.181209    81.486324    2005.4001   0.03894788  0.042065835  0.054462487    0.1354762  0.031857511  0.034952654  0.043852449   0.11066261 
    2000   -1790477.7    15069.547    -3368.038    77.232592    89.181209    81.486324    2000.6021  0.039403712  0.039486411  0.051140639   0.13003076  0.032121206  0.031754652  0.040752692   0.10462855 
    3000   -1790349.9    15143.284   -1560.1569    77.232592    89.181209    81.486324    2010.3913  0.040074232  0.040150736  0.051014427    0.1312394  0.032524997  0.032081652  0.040354652    0.1049613 
    4000   -1790356.2     15018.72   -1849.9374    77.232592    89.181209    81.486324    1993.8544  0.039562441  0.040417965   0.05238006   0.13236047  0.031386129  0.032062754  0.041716592   0.10516548 
    5000   -1790502.5    15065.288   -2612.9491    77.232592    89.181209    81.486324    2000.0368    0.0388224  0.039889004  0.050603232   0.12931464  0.030896415  0.031621964  0.039736054   0.10225443 
    6000   -1790509.5    15063.123   -2930.9495    77.232592    89.181209    81.486324    1999.7492  0.039680144  0.041732198   0.05130509   0.13271743   0.03133391  0.032953511  0.040292429   0.10457985 
    7000   -1790456.9    15107.278   -2359.7256    77.232592    89.181209    81.486324    2005.6112  0.039525578  0.040389292  0.051040961   0.13095583  0.031230276  0.030885527  0.040429619   0.10254542 
    8000   -1790526.3    15069.641   -2690.0528    77.232592    89.181209    81.486324    2000.6146  0.040429242  0.042704525  0.051979147   0.13511291  0.032333186  0.033897027  0.041924494   0.10815471 
    9000   -1790435.2    15003.549   -2779.2478    77.232592    89.181209    81.486324    1991.8404  0.039543741  0.040211862  0.049929769   0.12968537  0.031384745  0.030943266  0.039757029   0.10208504 
   10000   -1790467.2     14950.56   -3252.9311    77.232592    89.181209    81.486324    1984.8056  0.040032706  0.042241609  0.052196281    0.1344706  0.030867657  0.032221109  0.041121541   0.10421031 
   11000   -1790485.5    15073.577   -2450.0674    77.232592    89.181209    81.486324    2001.1371  0.042052158   0.04148388   0.05067219   0.13420823  0.033482976  0.031720516  0.039725428   0.10492892 
   12000   -1790488.6    15034.878   -2366.5897    77.232592    89.181209    81.486324    1995.9995  0.040885917    0.0412308  0.052106215   0.13422293  0.031486422  0.031863428  0.041067466   0.10441732 
   13000   -1790432.8    14948.033   -2468.5303    77.232592    89.181209    81.486324    1984.4702  0.041237756  0.041811472  0.051505656   0.13455488  0.032750116  0.033017407  0.041273933   0.10704146 
   14000   -1790506.9    15002.036   -2785.4468    77.232592    89.181209    81.486324    1991.6395  0.039400848  0.040326223  0.051679594   0.13140667   0.03063272  0.031664658   0.04116473   0.10346211 
   15000   -1790486.7    15029.717   -2466.1435    77.232592    89.181209    81.486324    1995.3144  0.041062433  0.041759573  0.052409572   0.13523158  0.031724057  0.033573137  0.040473248   0.10577044 
   16000   -1790531.1     15130.28   -2617.3915    77.232592    89.181209    81.486324    2008.6649  0.040305554   0.03984508  0.052006705   0.13215734  0.030999828  0.031075389  0.041827273   0.10390249 
   17000   -1790365.8      15105.8   -1559.5984    77.232592    89.181209    81.486324     2005.415  0.040615555  0.042241652  0.051951928   0.13480913  0.031373222   0.03284388  0.040850859   0.10506796 
   18000   -1790339.4    15111.954   -2080.2993    77.232592    89.181209    81.486324     2006.232  0.041286049  0.040846797  0.052713187   0.13484603  0.031808171  0.032177598  0.040785076   0.10477085 
   19000   -1790502.8    15162.866   -2179.9292    77.232592    89.181209    81.486324    2012.9909  0.040874064  0.039685804  0.051755577   0.13231544  0.031499184  0.031519709  0.040588103     0.103607 
   20000   -1790481.4    15139.569   -2425.1042    77.232592    89.181209    81.486324    2009.8982  0.041600023  0.042579337  0.050786991   0.13496635  0.032676441  0.033758561  0.040102786   0.10653779 
   21000   -1790479.4    15049.985   -2262.5452    77.232592    89.181209    81.486324    1998.0051    0.0400611  0.041304845  0.051371241   0.13273719  0.031348366  0.032249906  0.040400658   0.10399893 
   22000   -1790505.1    15076.357   -2602.3659    77.232592    89.181209    81.486324    2001.5063  0.039311802  0.042643734  0.051604871   0.13356041  0.030800642  0.033963471  0.040757087    0.1055212 
   23000   -1790428.1    15091.324    -2568.121    77.232592    89.181209    81.486324    2003.4932   0.04032179  0.040441349  0.052860777   0.13362392  0.031624646   0.03114049  0.040785023   0.10355016 
   24000   -1790403.4    15071.025   -1677.0904    77.232592    89.181209    81.486324    2000.7983  0.040683759  0.041990309  0.052437435    0.1351115  0.032596857  0.033077648    0.0409681    0.1066426 
   25000   -1790541.5    15106.703   -2457.8716    77.232592    89.181209    81.486324    2005.5349  0.040701588  0.042697292  0.051875235   0.13527411  0.031652998  0.032374026  0.040503776    0.1045308 
   26000   -1790528.9    15044.003   -2898.7331    77.232592    89.181209    81.486324     1997.211  0.040829525  0.041682027  0.054316299   0.13682785  0.031626376  0.031504079   0.04299076   0.10612121 
   27000   -1790380.3    15071.578   -2234.1523    77.232592    89.181209    81.486324    2000.8718  0.041332871   0.04322242  0.051859644   0.13641494  0.031950162  0.033855049  0.040634454   0.10643966 
   28000   -1790441.3     14938.69   -2685.2398    77.232592    89.181209    81.486324    1983.2299   0.04149731  0.041965026   0.05465959   0.13812193   0.03202464  0.032533097  0.042229195   0.10678693 
   29000   -1790561.2    15072.069   -2961.5847    77.232592    89.181209    81.486324    2000.9369   0.04090603   0.04216459  0.052927536   0.13599816  0.031547871  0.032780692  0.041464259   0.10579282 
   30000   -1790564.5    15080.488   -3429.2478    77.232592    89.181209    81.486324    2002.0546  0.041143997  0.041774835  0.052846869    0.1357657  0.032365891  0.032479405  0.040887325   0.10573262 
   31000     -1790482      15032.2   -2509.5244    77.232592    89.181209    81.486324     1995.644  0.041370884  0.042181465   0.05282338   0.13637573  0.031887213  0.032751695  0.040993198   0.10563211 
   32000   -1790619.5    14980.476   -3962.2786    77.232592    89.181209    81.486324    1988.7772  0.041461871  0.042379701  0.052231874   0.13607345  0.032355795  0.032816279  0.040862326    0.1060344 
   33000     -1790411    15043.805   -1868.3786    77.232592    89.181209    81.486324    1997.1847  0.041958197  0.041993091  0.052598124   0.13654941  0.032562666  0.032578239  0.041039375   0.10618028 
   34000   -1790490.5    15052.208   -2030.4267    77.232592    89.181209    81.486324    1998.3002  0.041007815  0.042269408  0.052570926   0.13584815  0.031363311  0.032538168  0.041519122    0.1054206 
   35000   -1790394.5    15088.602   -1532.9152    77.232592    89.181209    81.486324    2003.1319  0.041739634  0.042247308  0.052492018   0.13647896  0.032057807  0.032683683  0.041055037   0.10579653 
   36000   -1790405.2    15061.508   -1307.7251    77.232592    89.181209    81.486324     1999.535  0.042583657   0.04162755  0.053283522   0.13749473  0.033515649  0.032742816  0.041635635    0.1078941 
   37000   -1790461.1    15069.715   -2217.6569    77.232592    89.181209    81.486324    2000.6245   0.04262358  0.041921655  0.053137323   0.13768256  0.033221391  0.032220428  0.042326684    0.1077685 
   38000   -1790537.6    15028.682    -2878.177    77.232592    89.181209    81.486324     1995.177  0.041182963  0.042338779  0.052567339   0.13608908  0.031571899  0.032515455   0.04171758   0.10580493 
   39000   -1790470.2    15021.029   -2246.6774    77.232592    89.181209    81.486324     1994.161  0.041729261  0.042623842  0.054488417   0.13884152   0.03241621  0.032623267  0.042632275   0.10767175 
   40000   -1790576.2      15021.1   -2770.6865    77.232592    89.181209    81.486324    1994.1704  0.041917862  0.042737258  0.053002893   0.13765801  0.032540196  0.032468444  0.041450038   0.10645868 
   41000   -1790515.7    15125.414   -2956.2183    77.232592    89.181209    81.486324    2008.0189  0.043360342  0.042725583  0.054839796   0.14092572  0.033450645  0.032145898  0.043921973   0.10951852 
   42000   -1790490.8    15045.534   -2621.8749    77.232592    89.181209    81.486324    1997.4142  0.041224267  0.042556136  0.052281435   0.13606184  0.031499977  0.032436078  0.041287362   0.10522342 
   43000   -1790444.7     15143.51   -2509.3137    77.232592    89.181209    81.486324    2010.4213  0.041237899    0.0433134   0.05360307   0.13815437  0.031779577  0.032864735  0.041761724   0.10640604 
   44000   -1790406.9     15174.77    -1856.828    77.232592    89.181209    81.486324    2014.5714   0.04091668  0.043403172  0.054432712   0.13875256  0.031572606  0.033293693  0.042739693   0.10760599 
   45000   -1790457.6    15086.638     -2789.25    77.232592    89.181209    81.486324    2002.8711  0.041432707  0.042809162  0.052588218   0.13683009  0.032432237  0.033158728  0.041990165   0.10758113 
   46000     -1790418     15061.11   -2427.9615    77.232592    89.181209    81.486324     1999.482  0.042193154  0.042803793  0.054993652    0.1399906  0.031873959  0.031817493  0.042650494   0.10634195 
   47000   -1790531.1    15134.727   -3011.4398    77.232592    89.181209    81.486324    2009.2553  0.041578571  0.043292727  0.052813739   0.13768504  0.032344792  0.033739092  0.041210565   0.10729445 
   48000   -1790446.9    15074.154   -2588.2049    77.232592    89.181209    81.486324    2001.2138  0.041782675  0.042457045  0.053818072   0.13805779  0.032300044  0.032959493  0.042149491   0.10740903 
   49000   -1790465.2    15051.198   -2474.1276    77.232592    89.181209    81.486324    1998.1661  0.041338488  0.043308068  0.053449966   0.13809652  0.032293834  0.033006944  0.041732992   0.10703377 
   50000   -1790470.4     15067.01    -2817.063    77.232592    89.181209    81.486324    2000.2653  0.043518423  0.043359479  0.052206013   0.13908391  0.032560528    0.0328076  0.040425392   0.10579352 
   51000   -1790401.3    15087.099   -1810.9336    77.232592    89.181209    81.486324    2002.9324  0.041335618  0.043706532  0.053061386   0.13810354  0.032032355  0.032606036  0.041744793   0.10638318 
   52000   -1790495.5    15141.127   -2717.4746    77.232592    89.181209    81.486324     2010.105  0.041546838  0.043252067   0.05277222   0.13757113  0.031384401  0.032586543  0.041279744   0.10525069 
   53000     -1790482    15124.536   -2241.7688    77.232592    89.181209    81.486324    2007.9024  0.041815815  0.043355397    0.0520535   0.13722471  0.032875549  0.032418165  0.040498344   0.10579206 
   54000   -1790468.6    14944.357   -2509.6294    77.232592    89.181209    81.486324    1983.9822   0.04233077   0.04300638  0.053204606   0.13854176  0.033081235   0.03230539  0.041712843   0.10709947 
   55000   -1790399.8    15103.176    -2515.073    77.232592    89.181209    81.486324    2005.0667  0.042020033   0.04315017  0.052861582   0.13803179  0.032650546  0.033285483  0.042049069    0.1079851 
   56000   -1790432.3    15052.984   -2264.3837    77.232592    89.181209    81.486324    1998.4032  0.042582476  0.043434657  0.053018063    0.1390352  0.032627264  0.032620264   0.04212717    0.1073747 
   57000   -1790548.7    15117.927   -2260.9737    77.232592    89.181209    81.486324     2007.025  0.041547425  0.042561176  0.051825728   0.13593433   0.03196982  0.032081822  0.040875538   0.10492718 
   58000   -1790526.3    15046.303   -3077.2871    77.232592    89.181209    81.486324    1997.5163  0.041898775  0.043878392  0.053958854   0.13973602    0.0324623  0.033819408  0.042074267   0.10835598 
   59000   -1790536.7    15007.098   -2829.6797    77.232592    89.181209    81.486324    1992.3115  0.042790886  0.043522182  0.053153552   0.13946662  0.033252577   0.03354469  0.042497451   0.10929472 
   60000   -1790592.1    15057.427    -3234.088    77.232592    89.181209    81.486324    1998.9931  0.041250715   0.04349907  0.053899946   0.13864973  0.032517374  0.032871884   0.04158935   0.10697861 
   61000   -1790471.9    15026.815   -2672.4695    77.232592    89.181209    81.486324    1994.9291  0.041965255  0.043473751   0.05382417   0.13926318  0.033005623   0.03312027  0.042257439   0.10838333 
   62000   -1790414.8    15110.097   -1750.6233    77.232592    89.181209    81.486324    2005.9855  0.042320595  0.043746506   0.05570078   0.14176788  0.032320674  0.033831251  0.043198784   0.10935071 
   63000   -1790419.2    15009.045   -2380.6027    77.232592    89.181209    81.486324      1992.57  0.042248021  0.042946493  0.053711276   0.13890579  0.033045933  0.032082171  0.041289085   0.10641719 
   64000   -1790473.3    14998.361   -2629.6856    77.232592    89.181209    81.486324    1991.1517  0.041814357  0.044686124  0.054587454   0.14108793   0.03173668  0.033243547  0.041855259   0.10683549 
   65000   -1790491.5     15048.13   -3222.3385    77.232592    89.181209    81.486324    1997.7589  0.042207088   0.04379673  0.053747337   0.13975115  0.032546912  0.032695092  0.042048916   0.10729092 
   66000     -1790441    15081.736   -2238.0119    77.232592    89.181209    81.486324    2002.2203  0.041759915  0.043597605  0.055672072   0.14102959  0.031611816  0.032309945   0.04169973   0.10562149 
   67000     -1790469    15048.007   -2533.3051    77.232592    89.181209    81.486324    1997.7426  0.042095296  0.043601649  0.053554404   0.13925135  0.032145394  0.033637776  0.042545737   0.10832891 
   68000     -1790465    15014.868   -2542.2798    77.232592    89.181209    81.486324    1993.3431  0.043517166  0.043706681  0.054337078   0.14156092  0.033273548  0.033425341  0.041311188   0.10801008 
   69000   -1790457.4    15025.322   -2936.1559    77.232592    89.181209    81.486324    1994.7309  0.042444143  0.044319986  0.055378529   0.14214266  0.031922189  0.033794812  0.042631054   0.10834806 
   70000   -1790366.7    14995.021   -2729.9178    77.232592    89.181209    81.486324    1990.7083  0.042611311  0.044169737  0.054178461   0.14095951  0.032068973  0.032947587  0.042222975   0.10723954 
   71000   -1790498.5    15090.566   -3192.5476    77.232592    89.181209    81.486324    2003.3926  0.042505915  0.044187833  0.053362022   0.14005577  0.033086474  0.033836522  0.041794085   0.10871708 
   72000   -1790453.3    15148.816   -2473.9506    77.232592    89.181209    81.486324    2011.1258  0.042007628  0.044045527  0.054506661   0.14055982  0.032311486  0.033846819  0.042872204   0.10903051 
   73000   -1790559.3     15105.64   -2868.3118    77.232592    89.181209    81.486324    2005.3938  0.041885841  0.043484896  0.053284592   0.13865533  0.032555688  0.033405646   0.04142732   0.10738865 
   74000   -1790507.1     15154.14   -2213.2274    77.232592    89.181209    81.486324    2011.8325  0.042338538  0.044122283  0.055459961   0.14192078  0.032880959  0.033012117  0.042130771   0.10802385 
   75000   -1790402.1    15091.463   -2487.5121    77.232592    89.181209    81.486324    2003.5117  0.042620112  0.044314104  0.055773742   0.14270796  0.032453542  0.034037116  0.042574532   0.10906519 
   76000   -1790506.6    15092.765   -1786.6365    77.232592    89.181209    81.486324    2003.6845  0.042651604   0.04446732  0.054291943   0.14141087  0.032849809  0.033255955  0.041410212   0.10751598 
   77000   -1790532.6    15108.403   -2682.7062    77.232592    89.181209    81.486324    2005.7606  0.042441546  0.045055039  0.056178883   0.14367547  0.031961631  0.033088046   0.04310191   0.10815159 
   78000   -1790491.9    15086.135   -2363.4517    77.232592    89.181209    81.486324    2002.8044  0.042878944  0.045794009  0.054927515   0.14360047  0.032516531   0.03467713  0.041620145   0.10881381 
   79000   -1790460.2    15030.193   -2365.8286    77.232592    89.181209    81.486324    1995.3776  0.042642303  0.043643132  0.054174777   0.14046021   0.03302566  0.032530091  0.041524914   0.10708066 
   80000   -1790500.7    15104.205   -2841.3121    77.232592    89.181209    81.486324    2005.2033  0.044111521  0.044360769   0.05666708   0.14513937  0.033297138  0.033088848  0.043089876   0.10947586 
   81000   -1790441.5    15108.904   -2237.6884    77.232592    89.181209    81.486324     2005.827   0.04349308  0.045553886   0.05508901   0.14413598  0.032512663  0.033767109  0.041147316   0.10742709 
   82000   -1790459.8    15009.456   -2875.3849    77.232592    89.181209    81.486324    1992.6246  0.044923637  0.043739112  0.056600996   0.14526374  0.032147221  0.031872462  0.041977084   0.10599677 
   83000   -1790475.3    15057.339   -2918.0097    77.232592    89.181209    81.486324    1998.9815  0.045063685  0.045462122  0.055581526   0.14610733  0.032779818  0.033545493  0.041786541   0.10811185 
   84000   -1790431.4    15051.135   -2865.8096    77.232592    89.181209    81.486324    1998.1579  0.043678061  0.045770158  0.054231658   0.14367988  0.032649623  0.033521475  0.041062232   0.10723333 
   85000   -1790389.5    15058.721   -2229.1877    77.232592    89.181209    81.486324    1999.1648  0.045036997  0.046354496  0.057376443   0.14876794  0.033262744  0.034035641  0.043602706   0.11090109 
   86000   -1790482.4    15148.065   -2358.6663    77.232592    89.181209    81.486324     2011.026  0.046437853  0.044027977    0.0546654   0.14513123   0.03429405  0.032888828  0.041137759   0.10832064 
   87000   -1790450.8    15029.584   -2188.8309    77.232592    89.181209    81.486324    1995.2967  0.045401443  0.045817251   0.05567403   0.14689272  0.033023864  0.033798517  0.042228512   0.10905089 
   88000   -1790471.1    15062.241   -2684.4206    77.232592    89.181209    81.486324    1999.6322  0.044685651  0.044786642  0.056164542   0.14563683  0.033320141  0.033175129  0.042634449   0.10912972 
   89000     -1790486    15121.696   -2953.8084    77.232592    89.181209    81.486324    2007.5254  0.044916877   0.04461272  0.054770252   0.14429985  0.033708994  0.033189329  0.040780275    0.1076786 
   90000   -1790523.8    15090.877   -2743.7656    77.232592    89.181209    81.486324    2003.4339  0.044015456  0.045906385  0.057224739   0.14714658  0.032381428  0.034459137  0.044050282   0.11089085 
   91000   -1790404.7    15081.098   -1522.6459    77.232592    89.181209    81.486324    2002.1356  0.044833343  0.044433202  0.057004401   0.14627095  0.033195584  0.033236687  0.042991918   0.10942419 
   92000   -1790537.3    15037.819   -3534.0414    77.232592    89.181209    81.486324    1996.3901  0.045035314  0.045150766  0.055969165   0.14615525  0.034474435  0.033707133  0.042878334    0.1110599 
   93000   -1790416.6    14980.142   -2452.9599    77.232592    89.181209    81.486324    1988.7329  0.043836385  0.045883945  0.057153453   0.14687378  0.033498609  0.033534474  0.043078132   0.11011121 
   94000   -1790458.4    15091.614   -2350.1251    77.232592    89.181209    81.486324    2003.5317  0.043838608  0.045905731  0.057333541   0.14707788  0.032532258  0.032916078  0.043865147   0.10931348 
   95000   -1790470.1    15095.382   -2098.6565    77.232592    89.181209    81.486324    2004.0319  0.044082387  0.045267161  0.058003828   0.14735338  0.033852758  0.033028643  0.044388988   0.11127039 
   96000   -1790508.2    15007.233   -3158.5708    77.232592    89.181209    81.486324    1992.3295  0.045029521  0.046401291  0.054540813   0.14597162   0.03415758   0.03430284  0.041230683    0.1096911 
   97000   -1790520.7    15110.141   -2068.3256    77.232592    89.181209    81.486324    2005.9913  0.043654831  0.045720219  0.055928501   0.14530355  0.032622294  0.034002567  0.043114185   0.10973905 
   98000   -1790483.8    14943.087   -3064.0601    77.232592    89.181209    81.486324    1983.8136  0.044006261  0.046028876   0.05480621   0.14484135  0.033622581   0.03403652  0.042805689   0.11046479 
   99000   -1790484.5    15068.454   -2098.2347    77.232592    89.181209    81.486324    2000.4571  0.042726411  0.045578434  0.054669657    0.1429745  0.032586286  0.034673877  0.042719392   0.10997956 
  100000   -1790475.2    15071.843   -2111.1619    77.232592    89.181209    81.486324     2000.907  0.044974398  0.045573669  0.056506931     0.147055  0.033789106  0.034330138  0.043195134   0.11131438 
  101000   -1790494.7    15135.619   -2148.6948    77.232592    89.181209    81.486324    2009.3737  0.045799599  0.043992817  0.055742368   0.14553478  0.034160879  0.032770853   0.04243481   0.10936654 
  102000   -1790486.8    15115.432   -2509.3167    77.232592    89.181209    81.486324    2006.6937  0.044477256    0.0450659   0.05599019   0.14553335  0.033051092  0.033659211  0.042745395    0.1094557 
  103000   -1790424.6    15076.114    -2244.956    77.232592    89.181209    81.486324     2001.474  0.044278826  0.045210193  0.056084389   0.14557341  0.033011635  0.033847008  0.042139176   0.10899782 
  104000   -1790430.3    15117.723   -1696.9382    77.232592    89.181209    81.486324    2006.9979  0.046241871    0.0464976   0.05726916   0.15000863  0.034942205  0.034417784  0.043430509    0.1127905 
  105000   -1790411.8    15154.957   -2089.3945    77.232592    89.181209    81.486324    2011.9409  0.044376573  0.045917972  0.058134431   0.14842898  0.033181675  0.033994995  0.044460254   0.11163692 
  106000   -1790507.4    15019.551   -2708.0209    77.232592    89.181209    81.486324    1993.9648  0.044475862  0.046416166  0.056453032   0.14734506  0.032480349   0.03396011  0.042765054   0.10920551 
  107000   -1790522.6    15040.011   -2834.6545    77.232592    89.181209    81.486324    1996.6811  0.045882759  0.045043153  0.057055086     0.147981   0.03421899  0.033425227  0.043716732   0.11136095 
  108000   -1790520.2    15124.841   -2998.2205    77.232592    89.181209    81.486324    2007.9428  0.044846461   0.04653572  0.055568295   0.14695048  0.033770367  0.035131567  0.042261193   0.11116313 
  109000   -1790500.4    15097.401   -2534.0038    77.232592    89.181209    81.486324       2004.3  0.044852425  0.044185297  0.056792537   0.14583026  0.034333158  0.032425487  0.042633958    0.1093926 
  110000     -1790417    15007.337   -2487.8632    77.232592    89.181209    81.486324    1992.3432  0.044716952  0.046706286  0.056586441   0.14800968  0.033276111  0.034542126  0.042926861    0.1107451 
  111000   -1790583.7    15075.708   -3198.3704    77.232592    89.181209    81.486324      2001.42  0.043395872  0.046609178  0.056180306   0.14618536  0.032175681  0.034234857  0.041912664    0.1083232 
  112000   -1790526.3    15033.371   -3563.6426    77.232592    89.181209    81.486324    1995.7995  0.044794651  0.045960936  0.056638746   0.14739433  0.033318779  0.033827706  0.042291252   0.10943774 
  113000   -1790512.9    15142.326   -2123.3976    77.232592    89.181209    81.486324    2010.2641  0.045047176   0.04642014  0.056004355   0.14747167  0.034553988  0.033940389  0.042854293   0.11134867 
  114000     -1790489    14981.388   -2212.7837    77.232592    89.181209    81.486324    1988.8984  0.044343522  0.045105064  0.057233902   0.14668249  0.033616903  0.032805688  0.043169453   0.10959204 
  115000   -1790439.2    14992.698   -2892.6011    77.232592    89.181209    81.486324    1990.3998  0.044657553  0.045666116  0.056212761   0.14653643  0.033562833  0.033636204  0.042757651   0.10995669 
  116000   -1790416.9    15072.946   -2433.7738    77.232592    89.181209    81.486324    2001.0534  0.045366077  0.046251975  0.057030331   0.14864838  0.033853223  0.033033884  0.043147381   0.11003449 
  117000   -1790438.1    15096.191   -3004.8192    77.232592    89.181209    81.486324    2004.1393  0.044492719  0.045757842  0.056439735    0.1466903  0.032716618  0.033703853  0.042851874   0.10927234 
  118000   -1790579.5    15180.778   -2822.1376    77.232592    89.181209    81.486324    2015.3689  0.044548428  0.045172013  0.056030878   0.14575132  0.033241826  0.032885264  0.042207413    0.1083345 
  119000   -1790467.1    15068.172   -2150.3917    77.232592    89.181209    81.486324    2000.4196  0.045105062  0.046080833  0.055882936   0.14706883  0.033313258  0.033588952  0.042800108   0.10970232 
  120000   -1790594.5    15126.487   -3562.0763    77.232592    89.181209    81.486324    2008.1613  0.044380966  0.047128286  0.057114376   0.14862363  0.032848069  0.034006628  0.043082872   0.10993757 
  121000   -1790405.7    15040.578   -2358.0677    77.232592    89.181209    81.486324    1996.7563  0.045502833   0.04649327  0.056211718   0.14820782  0.033807496  0.032750055  0.042371499   0.10892905 
  122000   -1790415.9    15103.946   -2674.3373    77.232592    89.181209    81.486324    2005.1688  0.045526657  0.048288861   0.05659787   0.15041339   0.03385645  0.034618866  0.042500642   0.11097596 
  123000   -1790466.5    15116.877   -2758.3703    77.232592    89.181209    81.486324    2006.8855  0.044093447  0.045332021  0.057302937    0.1467284  0.033059605  0.031902606  0.043505614   0.10846782 
  124000   -1790423.3    15070.081    -2560.742    77.232592    89.181209    81.486324     2000.673  0.044253126  0.046809191  0.056996125   0.14805844  0.033183018  0.033855202  0.042455307   0.10949353 
  125000     -1790502    15041.322   -3070.8109    77.232592    89.181209    81.486324     1996.855  0.044621168  0.046192709  0.058378295   0.14919217  0.032960104  0.032842536  0.042955487   0.10875813 
  126000     -1790475    15075.176   -2420.4914    77.232592    89.181209    81.486324    2001.3494  0.044787668  0.046676352  0.056986555   0.14845057  0.033575035   0.03345907  0.042198528   0.10923263 
  127000   -1790472.1    15019.309   -3099.8689    77.232592    89.181209    81.486324    1993.9326  0.044645753  0.046631456  0.057734363   0.14901157  0.032900127  0.033180687  0.042713739   0.10879455 
  128000     -1790502    15055.291   -2687.8228    77.232592    89.181209    81.486324    1998.7096  0.044148252  0.046079282  0.057452331   0.14767986  0.032400231   0.03296915     0.042583   0.10795238 
  129000   -1790399.8    15033.358   -2036.7606    77.232592    89.181209    81.486324    1995.7977  0.045359067  0.046954635  0.056789893   0.14910359  0.033252158  0.034547383  0.042580918   0.11038046 
  130000   -1790517.7    15103.003   -2413.1676    77.232592    89.181209    81.486324    2005.0437  0.044965988  0.045227492  0.056409073   0.14660255  0.033113727  0.032480916  0.043014449   0.10860909 
  131000   -1790516.5    15083.643   -2400.1374    77.232592    89.181209    81.486324    2002.4736  0.044212561  0.046479633   0.05739168   0.14808387  0.032492777  0.033578775  0.042912115   0.10898367 
  132000     -1790478    15024.798   -2407.1639    77.232592    89.181209    81.486324    1994.6614  0.045426917   0.04711126  0.056576089   0.14911427  0.034158185  0.034083898  0.042381107   0.11062319 
  133000   -1790456.6    15143.869   -2314.0175    77.232592    89.181209    81.486324     2010.469  0.044643205   0.04534899  0.057072229   0.14706442  0.033059018   0.03319268  0.043651788   0.10990349 
  134000   -1790506.9    14981.769   -3061.9645    77.232592    89.181209    81.486324    1988.9489  0.045130751  0.045952035  0.056456238   0.14753902  0.033542504  0.033429964  0.042818661   0.10979113 
  135000   -1790399.9    15153.808   -2410.4683    77.232592    89.181209    81.486324    2011.7885  0.043875003   0.04607474  0.058749386   0.14869913  0.032985669  0.032871925  0.043358093   0.10921569 
  136000   -1790365.1    15096.072   -1954.6224    77.232592    89.181209    81.486324    2004.1236  0.044221663  0.047546741  0.056602983   0.14837139   0.03332483  0.034376664  0.042233922   0.10993542 
  137000     -1790385    15012.845   -1361.5742    77.232592    89.181209    81.486324    1993.0745  0.043848805   0.04602426   0.05682652   0.14669959  0.033471531  0.032625841  0.042781474   0.10887885 
  138000   -1790491.3    15130.958   -3188.0826    77.232592    89.181209    81.486324    2008.7549  0.044960641  0.046146396  0.057017905   0.14812494  0.033054734  0.033190865  0.042277678   0.10852328 
  139000   -1790445.9    15031.531   -2374.6764    77.232592    89.181209    81.486324    1995.5552  0.045400917  0.046828373  0.057693475   0.14992277  0.033572097  0.033659725  0.043218727   0.11045055 
  140000   -1790389.8    15109.519   -1174.9794    77.232592    89.181209    81.486324    2005.9088  0.045090175  0.046106513  0.058808064   0.15000475  0.033538199  0.033883929  0.043708755   0.11113088 
  141000     -1790434    15047.408   -1949.2442    77.232592    89.181209    81.486324     1997.663   0.04409662   0.04720342  0.058293389   0.14959343  0.032911301  0.033878614  0.043386454   0.11017637 
  142000   -1790510.4    15014.143   -2876.7198    77.232592    89.181209    81.486324    1993.2469  0.044789296  0.045556386  0.058121266   0.14846695   0.03360089  0.032639129  0.044130177    0.1103702 
  143000   -1790454.6    15013.088   -2588.0578    77.232592    89.181209    81.486324    1993.1068  0.045226054  0.046464778  0.058056479   0.14974731  0.033892042  0.033285846  0.042893861   0.11007175 
  144000   -1790534.1    15113.692   -3253.2496    77.232592    89.181209    81.486324    2006.4627  0.044826399  0.046285316  0.058909325   0.15002104  0.033617149  0.033826084  0.044172248   0.11161548 
  145000   -1790518.6    14976.911    -3303.692    77.232592    89.181209    81.486324     1988.304  0.043990718  0.046812995  0.057861012   0.14866472  0.033318883  0.033724143  0.042504655   0.10954768 
  146000   -1790463.4    15099.151   -2650.2465    77.232592    89.181209    81.486324    2004.5323  0.044843046  0.046625911  0.057684023   0.14915298  0.033498764  0.033804463  0.043022038   0.11032526 
  147000   -1790536.9    14993.384   -3073.4617    77.232592    89.181209    81.486324    1990.4908  0.045735938  0.045543977  0.058041402   0.14932132  0.033470542   0.03280055   0.04316187   0.10943296 
  148000   -1790499.1    15075.444   -2603.1244    77.232592    89.181209    81.486324    2001.3851  0.045912771  0.046168047  0.057274499   0.14935532  0.034516463  0.033167487  0.042860242   0.11054419 
  149000   -1790540.2    15020.323   -2851.6366    77.232592    89.181209    81.486324    1994.0672  0.044695201  0.047250177  0.057170604   0.14911598  0.033698799  0.032949246  0.042652876   0.10930092 
  150000   -1790501.6    15066.558    -2974.757    77.232592    89.181209    81.486324    2000.2053   0.04462891  0.046519378  0.058979773   0.15012806  0.032637503  0.032546156  0.043900195   0.10908385 
  151000   -1790464.5    14995.472   -2658.9775    77.232592    89.181209    81.486324    1990.7682  0.045837238  0.047815876  0.058763149   0.15241626  0.033272974  0.034513637  0.042619161   0.11040577 
  152000   -1790540.8    15031.125   -3137.6144    77.232592    89.181209    81.486324    1995.5014  0.045313404   0.04659055  0.058400089   0.15030404  0.033408393  0.032697708  0.043829261   0.10993536 
  153000   -1790420.7    15008.162   -2235.1687    77.232592    89.181209    81.486324    1992.4528  0.045384693  0.048528479  0.059608467   0.15352164   0.03350819   0.03462937  0.044818489   0.11295605 
  154000   -1790453.6    15091.352   -2598.4092    77.232592    89.181209    81.486324    2003.4969  0.044947976   0.04903325   0.05788799   0.15186922  0.033444039  0.034781326  0.043217105   0.11144247 
  155000   -1790477.2     15104.51   -2293.6829    77.232592    89.181209    81.486324    2005.2438  0.044990602    0.0467617  0.057454487   0.14920679  0.033213371  0.032536198  0.042679652   0.10842922 
  156000   -1790401.2    15052.212   -1971.2161    77.232592    89.181209    81.486324    1998.3008  0.045430853  0.047875993  0.057364175   0.15067102  0.033913196  0.034229247  0.042284025   0.11042647 
  157000   -1790477.1    15140.917   -2543.2226    77.232592    89.181209    81.486324     2010.077  0.045133255   0.04781027  0.057749764   0.15069329   0.03427484  0.033390532  0.043271677   0.11093705 
  158000   -1790498.6    15068.884   -2502.8032    77.232592    89.181209    81.486324    2000.5142  0.043683957  0.047980449  0.057945032   0.14960944  0.033037941  0.033753499  0.042862902   0.10965434 
  159000   -1790464.6    15014.597   -2321.7638    77.232592    89.181209    81.486324    1993.3071  0.044753544  0.046073259  0.057729052   0.14855585  0.033366921  0.032118889  0.042979365   0.10846518 
  160000   -1790500.4    15040.978   -2274.6085    77.232592    89.181209    81.486324    1996.8094  0.045828708  0.048153691  0.057747049   0.15172945  0.033169642  0.033963387  0.042511853   0.10964488 
  161000     -1790443    15066.367   -2870.6144    77.232592    89.181209    81.486324    2000.1799  0.045223385  0.046762515  0.058025485   0.15001138   0.03280855  0.032678996  0.042874317   0.10836186 
  162000   -1790493.5    15092.815   -2028.6071    77.232592    89.181209    81.486324    2003.6911  0.045678469   0.04609075  0.058730071   0.15049929  0.033302548  0.032258778  0.042807511   0.10836884 
  163000   -1790458.8    15044.975   -2943.2005    77.232592    89.181209    81.486324      1997.34  0.045895302  0.047540307  0.058339113   0.15177472  0.034040307  0.033034764  0.043012467   0.11008754 
  164000   -1790549.1    15103.086   -2869.4543    77.232592    89.181209    81.486324    2005.0547  0.045083737  0.047582195  0.058769252   0.15143518  0.033151239    0.0326796  0.043848017   0.10967886 
  165000   -1790529.4    15010.924   -2808.6865    77.232592    89.181209    81.486324    1992.8195  0.046225943  0.047483184  0.058462484   0.15217161  0.033534056  0.033218433   0.04303176   0.10978425 
  166000   -1790430.6    15027.778   -2749.8098    77.232592    89.181209    81.486324    1995.0569  0.045553357   0.04748661  0.058674811   0.15171478   0.03337728  0.033504439  0.042582332   0.10946405 
  167000   -1790482.6    15099.109   -2415.0846    77.232592    89.181209    81.486324    2004.5268  0.046683325  0.048189672   0.05903121   0.15390421  0.033422868  0.033497004  0.042905568   0.10982544 
  168000   -1790558.6    15073.649   -3062.0187    77.232592    89.181209    81.486324    2001.1467  0.046424705  0.046813629  0.058220876   0.15145921  0.033754043  0.032106989  0.041768755   0.10762979 
  169000   -1790407.7    14968.897   -1893.6185    77.232592    89.181209    81.486324      1987.24  0.045954991  0.046860383   0.05881681   0.15163218   0.03316423  0.032345806   0.04202012   0.10753016 
  170000   -1790517.8    14992.492   -2300.5862    77.232592    89.181209    81.486324    1990.3725  0.045837413  0.046932507  0.058681154   0.15145107   0.03322902  0.033414168  0.043728685   0.11037187 
  171000   -1790472.9    15010.072   -2730.5367    77.232592    89.181209    81.486324    1992.7064  0.046147353  0.047840249   0.05850476   0.15249236  0.033632313  0.033459351  0.042717713   0.10980938 
  172000   -1790410.1    15062.286    -1855.175    77.232592    89.181209    81.486324    1999.6382  0.046282776  0.046630671  0.057881027   0.15079447   0.03336769  0.032799563  0.043321832   0.10948909 
  173000   -1790438.1    14966.823   -2491.1224    77.232592    89.181209    81.486324    1986.9647  0.046971917   0.04832631  0.058811806   0.15411003  0.033030192  0.033635833  0.041312315   0.10797834 
  174000   -1790504.6    15072.361   -3065.1373    77.232592    89.181209    81.486324    2000.9757  0.047389461  0.046914366  0.057825776    0.1521296  0.034023109  0.033601175  0.042480507   0.11010479 
  175000   -1790518.1    14951.366   -2903.9718    77.232592    89.181209    81.486324    1984.9127   0.04611885  0.046723165  0.058790912   0.15163293  0.032571247  0.032148881  0.042768369    0.1074885 
  176000     -1790484     15117.04   -1748.5853    77.232592    89.181209    81.486324    2006.9072   0.04764441  0.047493719  0.058081329   0.15321946  0.033646593  0.033283655  0.042403568   0.10933382 
  177000   -1790530.6    15032.013   -2872.8523    77.232592    89.181209    81.486324    1995.6192  0.047557873  0.047148154  0.059667236   0.15437326  0.033647949   0.03312225  0.043071887   0.10984209 
  178000   -1790484.1    15110.031   -2107.6862    77.232592    89.181209    81.486324    2005.9767  0.048052207  0.046854429   0.05896967   0.15387631  0.033734838  0.032452804  0.043022253    0.1092099 
  179000   -1790465.4    15089.301   -2229.6187    77.232592    89.181209    81.486324    2003.2246  0.047877767  0.046979633  0.059037672   0.15389507   0.03333195  0.033531955  0.043166639   0.11003054 
  180000   -1790525.4    15176.512   -2651.0726    77.232592    89.181209    81.486324    2014.8027  0.047347624  0.046934004  0.059972182   0.15425381  0.034125914   0.03348587  0.043230668   0.11084245 
  181000   -1790518.1    15058.127   -2590.6051    77.232592    89.181209    81.486324     1999.086  0.047034819  0.049218935  0.060921721   0.15717547  0.033315558  0.035182732  0.044397112    0.1128954 
  182000   -1790510.5    15049.121   -2403.8942    77.232592    89.181209    81.486324    1997.8904  0.047237576  0.047388063  0.057805043   0.15243068  0.033591084  0.033570115  0.042314982   0.10947618 
  183000   -1790355.4    15045.481   -1440.5915    77.232592    89.181209    81.486324    1997.4072  0.046905255   0.04818698  0.062048363    0.1571406   0.03396365  0.034427084  0.045629254   0.11401999 
  184000   -1790412.1    14956.844   -1635.0849    77.232592    89.181209    81.486324    1985.6399  0.046804367   0.04742356   0.05969496   0.15392289  0.033969946  0.033115122  0.043596828    0.1106819 
  185000   -1790502.4    15037.964   -2653.9624    77.232592    89.181209    81.486324    1996.4092  0.046437787  0.047212307  0.059351868   0.15300196  0.033659211  0.033499426  0.043238937   0.11039757 
  186000   -1790519.8    15072.798   -3114.5055    77.232592    89.181209    81.486324    2001.0337  0.046865787  0.048024106  0.058971211    0.1538611  0.033726439  0.034169691   0.04335173   0.11124786 
  187000   -1790452.9    14995.791   -2972.1987    77.232592    89.181209    81.486324    1990.8105   0.04693774  0.047683904  0.059118902   0.15374055  0.033727409  0.033086714  0.043610597   0.11042472 
  188000   -1790473.9    15069.867   -2244.7419    77.232592    89.181209    81.486324    2000.6446  0.047908904  0.049115344  0.059515658   0.15653991  0.034238013  0.034847545  0.043559667   0.11264523 
  189000   -1790417.8    15051.616   -1819.5172    77.232592    89.181209    81.486324    1998.2216  0.047355769  0.047367456  0.058792213   0.15351544  0.034310606  0.032595556  0.042833505   0.10973967 
  190000   -1790497.2    15046.786   -2943.8629    77.232592    89.181209    81.486324    1997.5804  0.045766002  0.048711469  0.059968524     0.154446  0.033038537   0.03446796  0.043847773   0.11135427 
  191000   -1790443.2    15085.663   -2823.6956    77.232592    89.181209    81.486324    2002.7416  0.047648575  0.046915198  0.057921463   0.15248524  0.034756066  0.032428263  0.042123331   0.10930766 
  192000   -1790469.3    15068.169   -3059.7667    77.232592    89.181209    81.486324    2000.4192  0.046971043   0.04836476  0.059980904   0.15531671  0.033139443   0.03349485  0.044748183   0.11138248 
  193000   -1790485.3    15015.153   -3582.0626    77.232592    89.181209    81.486324    1993.3809  0.046386413   0.04877098  0.060116271   0.15527366  0.033386393  0.033990088  0.043394269   0.11077075 
  194000   -1790506.4    15104.844   -2395.0538    77.232592    89.181209    81.486324     2005.288  0.047611722  0.048392755  0.058878528   0.15488301   0.03452978  0.032687697  0.042794505   0.11001198 
  195000   -1790499.6    15019.406     -2683.86    77.232592    89.181209    81.486324    1993.9455  0.046486298  0.049304573  0.059339746   0.15513062   0.03338492  0.034521466  0.043451825   0.11135821 
  196000   -1790464.5    15097.663   -2900.6885    77.232592    89.181209    81.486324    2004.3348  0.047129923  0.048178415  0.058944168   0.15425251  0.033819505  0.033168578  0.043537063   0.11052515 
  197000   -1790483.3    15044.905   -2489.2675    77.232592    89.181209    81.486324    1997.3308  0.048532187  0.049908941   0.05920192   0.15764305  0.034353296  0.034674999  0.043577161   0.11260546 
  198000   -1790511.1    15088.329   -2794.3867    77.232592    89.181209    81.486324    2003.0957  0.048401474  0.047665475  0.059528002   0.15559495  0.034063125  0.032978492  0.043692304   0.11073392 
  199000   -1790463.1    15152.012   -2112.2259    77.232592    89.181209    81.486324      2011.55  0.047381227  0.050229329  0.060371873   0.15798243  0.033252915   0.03512248  0.044044354   0.11241975 
  200000   -1790492.5    15010.628   -3246.2098    77.232592    89.181209    81.486324    1992.7802  0.047070972  0.048290337  0.061181605   0.15654291  0.033694554  0.033238545  0.044037626   0.11097073 
  201000   -1790453.2    15082.152   -2541.9657    77.232592    89.181209    81.486324    2002.2756  0.047649929  0.049852841  0.061344654   0.15884742  0.033417258  0.034723758  0.044627897   0.11276891 
  202000   -1790430.3    15078.369   -1994.5752    77.232592    89.181209    81.486324    2001.7733  0.047418508  0.047844903  0.059579661   0.15484307  0.034047628  0.032648186  0.043337923   0.11003374 
  203000   -1790441.4    15034.262   -1943.3608    77.232592    89.181209    81.486324    1995.9178  0.050924632  0.048142829  0.060988752   0.16005621  0.034978658  0.033040226  0.044092797   0.11211168 
  204000   -1790473.3    15001.146   -3053.6477    77.232592    89.181209    81.486324    1991.5214  0.047485954   0.04876461   0.06011353   0.15636409  0.032970011  0.033778515  0.043087308   0.10983583 
  205000     -1790473    15065.348   -2523.0103    77.232592    89.181209    81.486324    2000.0447  0.048613631  0.046825795  0.060499036   0.15593846  0.034181039   0.03176591  0.043404749    0.1093517 
  206000   -1790457.7     15081.81   -2017.8208    77.232592    89.181209    81.486324    2002.2302  0.050021898  0.049510314  0.060217765   0.15974998  0.035670252  0.034407008  0.043519484   0.11359674 
  207000   -1790538.9    15086.388   -2948.6343    77.232592    89.181209    81.486324     2002.838  0.047842689  0.048038525  0.059720093   0.15560131  0.033965682   0.03281035  0.044190141   0.11096617 
  208000   -1790480.8    15059.724   -2171.2856    77.232592    89.181209    81.486324    1999.2981  0.046870633  0.049763487  0.059773433   0.15640755  0.033007727  0.034039608  0.043325898   0.11037323 
  209000   -1790411.8    15112.821   -2202.9348    77.232592    89.181209    81.486324    2006.3471  0.048166976  0.047951331  0.060368829   0.15648714  0.034906279  0.033423308   0.04390403   0.11223362 
  210000   -1790407.6    14991.396   -2080.1075    77.232592    89.181209    81.486324     1990.227  0.048003416  0.047541028  0.059886545   0.15543099  0.033556881  0.032433243  0.043864538   0.10985466 
  211000   -1790405.1    15023.119   -2165.9447    77.232592    89.181209    81.486324    1994.4384  0.047178863  0.050821473   0.05941261   0.15741295   0.03377851  0.035346856   0.04341869   0.11254406 
  212000   -1790416.3    15073.092   -2049.7912    77.232592    89.181209    81.486324    2001.0728  0.047767303  0.047778489  0.060814761   0.15636055  0.033904343  0.032519852  0.044915787   0.11133998 
  213000   -1790450.4    15116.729   -1876.8724    77.232592    89.181209    81.486324    2006.8659   0.04707451  0.049688494  0.059768196    0.1565312  0.032622613  0.034893483  0.043426272   0.11094237 
  214000   -1790477.7    15037.572    -2279.808    77.232592    89.181209    81.486324    1996.3572  0.047310926  0.048557447  0.061503623     0.157372  0.033188814   0.03334191  0.045297897   0.11182862 
  215000     -1790415    15057.656   -2190.3602    77.232592    89.181209    81.486324    1999.0235    0.0482134  0.048100734  0.059658628   0.15597276  0.033957039  0.033136471  0.043367763   0.11046127 
  216000   -1790536.1    15040.352   -2880.4586    77.232592    89.181209    81.486324    1996.7262  0.047849601  0.047908646  0.060899918   0.15665817  0.033938622  0.033592924  0.044497764   0.11202931 
  217000   -1790455.1     14986.81   -2413.0571    77.232592    89.181209    81.486324    1989.6181   0.04866715  0.047719023  0.059804021   0.15619019  0.034195365  0.033970156  0.044102308   0.11226783 
  218000   -1790496.6     15139.67   -1806.8843    77.232592    89.181209    81.486324    2009.9115  0.048309558    0.0488808  0.059550526   0.15674088  0.033576839  0.034345833  0.043789773   0.11171245 
  219000   -1790361.4    15041.632   -1586.3073    77.232592    89.181209    81.486324    1996.8963  0.048392335  0.047539868  0.061317691   0.15724989  0.034139947  0.032816957  0.044750996    0.1117079 
  220000   -1790381.9    15106.388   -1799.3483    77.232592    89.181209    81.486324    2005.4931  0.049621652  0.050900971  0.060118944   0.16064157  0.034611443  0.036325532  0.043592453   0.11452943 
  221000   -1790431.1    15074.842   -2071.6036    77.232592    89.181209    81.486324     2001.305  0.049768455  0.047811847  0.060588346   0.15816865  0.035461209  0.032542781  0.044047195   0.11205119 
  222000   -1790457.5    15053.182   -2356.5356    77.232592    89.181209    81.486324    1998.4296  0.048587945   0.04854548  0.060771333   0.15790476  0.034323171  0.034439617  0.042380269   0.11114306 
  223000   -1790490.9    15100.945     -2251.09    77.232592    89.181209    81.486324    2004.7705  0.049187342  0.049279601  0.061302339   0.15976928  0.034798326  0.034458683  0.045150944   0.11440795 
  224000   -1790517.8    15023.429   -3182.1324    77.232592    89.181209    81.486324    1994.4796  0.050284394  0.049652974  0.060645044   0.16058241  0.035414415  0.033982136  0.044073845    0.1134704 
  225000     -1790583    15105.577   -2798.0563    77.232592    89.181209    81.486324    2005.3854  0.048955366  0.050326501  0.060710851   0.15999272  0.034391276   0.03484325   0.04534215   0.11457668 
  226000     -1790471    15059.718   -2211.5875    77.232592    89.181209    81.486324    1999.2973   0.04972908  0.049762724  0.061574189   0.16106599  0.035029577  0.034242387  0.045407319   0.11467928 
  227000   -1790507.2    15064.086   -2241.5218    77.232592    89.181209    81.486324    1999.8772  0.049652898  0.050150261  0.060046022   0.15984918  0.035031673  0.035076765  0.043435548   0.11354399 
  228000   -1790431.9     15041.74   -2473.1271    77.232592    89.181209    81.486324    1996.9106  0.050614149  0.050550016  0.061406881   0.16257105   0.03539529  0.034919704  0.044208826   0.11452382 
  229000   -1790508.8    15122.423   -2974.1132    77.232592    89.181209    81.486324    2007.6219   0.05020195  0.049916747  0.061910245   0.16202894  0.034651677  0.034228492  0.044705926   0.11358609 
  230000   -1790491.3    15073.649   -2644.1278    77.232592    89.181209    81.486324    2001.1467   0.04931808  0.050534219  0.060602255   0.16045455  0.033945407  0.034243236  0.044015993   0.11220464 
  231000   -1790516.3    15049.675   -3184.1914    77.232592    89.181209    81.486324    1997.9639  0.049933207  0.049229252  0.061783938    0.1609464  0.034507706  0.033381004  0.044767433   0.11265614 
  232000     -1790464    15167.234   -2248.6406    77.232592    89.181209    81.486324    2013.5709  0.050641746  0.049962946  0.060575682   0.16118037  0.034848081  0.034493027  0.043601286   0.11294239 
  233000   -1790520.2    14995.349   -2866.7562    77.232592    89.181209    81.486324    1990.7518  0.049010725  0.051177242  0.060473622   0.16066159  0.034082643  0.035598977  0.043681707   0.11336333 
  234000   -1790446.2    15046.462   -2426.3324    77.232592    89.181209    81.486324    1997.5375  0.048656121  0.050451069  0.060888509    0.1599957   0.03499705   0.03432643  0.045211466   0.11453495 
  235000   -1790460.1    14965.547   -2509.2657    77.232592    89.181209    81.486324    1986.7954  0.049192421  0.050770575  0.060365531   0.16032853  0.034876065  0.035466492  0.043482515   0.11382507 
  236000     -1790431     15030.89   -2415.5922    77.232592    89.181209    81.486324    1995.4701  0.050127107  0.050598327  0.062222602   0.16294804  0.036297674  0.035445775  0.045119342   0.11686279 
  237000   -1790451.3     15160.75   -1512.3375    77.232592    89.181209    81.486324    2012.7101  0.049021403   0.05099722  0.061802937   0.16182156  0.035067314  0.036408954  0.045257563   0.11673383 
  238000   -1790465.4     15068.83   -2679.4911    77.232592    89.181209    81.486324    2000.5069  0.049696741  0.049514059  0.060833622   0.16004442  0.035184913    0.0345989  0.044450089    0.1142339 
  239000   -1790513.9     15078.11   -2710.4041    77.232592    89.181209    81.486324     2001.739  0.049459528   0.05115416  0.061551846   0.16216553  0.034668957  0.036671006  0.044766607   0.11610657 
  240000   -1790448.2    15085.044   -3280.3512    77.232592    89.181209    81.486324    2002.6595  0.049796843  0.049553522  0.059378037    0.1587284  0.035611132  0.034820748  0.044182841   0.11461472 
  241000   -1790480.2     15123.51   -3235.6784    77.232592    89.181209    81.486324    2007.7662  0.049855894  0.049403857  0.060548234   0.15980798  0.035927664    0.0343939   0.04439434    0.1147159 
  242000   -1790389.1    15064.335   -2190.8922    77.232592    89.181209    81.486324    1999.9102   0.04918911  0.050812672  0.061406809   0.16140859  0.034662398  0.035306178  0.044994921    0.1149635 
  243000   -1790568.5    15070.289   -2953.8789    77.232592    89.181209    81.486324    2000.7006  0.048986429  0.050012377  0.060255974   0.15925478  0.035187762   0.03531194   0.04497045   0.11547015 
  244000     -1790490    15047.553   -2549.9849    77.232592    89.181209    81.486324    1997.6823   0.04996495  0.049101965  0.060039293   0.15910621  0.036258252  0.034703527  0.045230716    0.1161925 
  245000   -1790451.6    15026.727   -2119.1628    77.232592    89.181209    81.486324    1994.9175  0.049845426  0.048958665  0.061721541   0.16052563  0.035389951  0.034949122  0.045981893   0.11632097 
  246000   -1790418.1    14938.723   -2509.1059    77.232592    89.181209    81.486324    1983.2342  0.049712801  0.051159793  0.060402135   0.16127473  0.035777615   0.03658491  0.044200601   0.11656313 
  247000   -1790563.5    15077.379   -3288.7018    77.232592    89.181209    81.486324    2001.6419  0.049879838  0.048286903   0.06077179   0.15893853  0.034863865  0.035002742  0.045579079   0.11544569 
  248000   -1790451.9    14989.172   -1942.2151    77.232592    89.181209    81.486324    1989.9317  0.050574142  0.049952137  0.061395693   0.16192197  0.036454298  0.035867105  0.045214805   0.11753621 
  249000   -1790433.6    15059.437   -1840.3669    77.232592    89.181209    81.486324      1999.26  0.050405451  0.050393895  0.060137441   0.16093679  0.035932335  0.035892383  0.044421241   0.11624596 
  250000   -1790511.5    15103.383   -3176.6408    77.232592    89.181209    81.486324    2005.0941  0.050997263  0.049820583  0.061346794   0.16216464  0.036141519  0.035015521  0.044365814   0.11552285 
  251000   -1790534.4    15018.438   -3145.8514    77.232592    89.181209    81.486324     1993.817  0.049202695  0.049439868  0.060722904   0.15936547   0.03458459  0.035693091  0.044039742   0.11431742 
  252000   -1790468.5    15105.122   -2388.9918    77.232592    89.181209    81.486324     2005.325  0.049389346   0.04893408  0.061162454   0.15948588  0.035284025    0.0354435  0.045448635   0.11617616 
  253000   -1790384.6    15078.719   -2466.1295    77.232592    89.181209    81.486324    2001.8198  0.049591418  0.049954843  0.060449395   0.15999566  0.035090952  0.036006951  0.044108317   0.11520622 
  254000   -1790467.6    15083.732   -2377.8564    77.232592    89.181209    81.486324    2002.4853  0.050513409  0.049623091  0.061593719   0.16173022  0.035403592   0.03531626  0.045287144     0.116007 
  255000   -1790428.2    15056.026   -2084.6562    77.232592    89.181209    81.486324    1998.8072  0.050684771  0.051224918  0.061383226   0.16329292   0.03560734  0.036404451  0.044943438   0.11695523 
  256000   -1790511.3    15061.191   -2999.0702    77.232592    89.181209    81.486324    1999.4928  0.050047285  0.051113103  0.061023134   0.16218352  0.035263102  0.036290251  0.044711314   0.11626467 
  257000   -1790559.1    15177.843   -3510.2613    77.232592    89.181209    81.486324    2014.9793  0.051745939  0.051740458  0.062735809   0.16622221   0.03687899  0.036091052  0.045207963     0.118178 
  258000   -1790447.8    15127.609   -2130.3911    77.232592    89.181209    81.486324    2008.3103  0.050571139  0.051976072  0.060754775   0.16330199  0.034489485  0.036371402  0.044946896   0.11580778 
  259000   -1790518.6    15055.893   -2836.3101    77.232592    89.181209    81.486324    1998.7895  0.049987755  0.051801169  0.062113792   0.16390272  0.034598437  0.036075566  0.045502999     0.116177 
  260000   -1790459.8    15013.503   -2433.2009    77.232592    89.181209    81.486324    1993.1619  0.050842511  0.050627046  0.061981535   0.16345109  0.036005966   0.03513682    0.0452057   0.11634849 
  261000   -1790527.8    15134.774   -2388.9736    77.232592    89.181209    81.486324    2009.2616  0.050490887  0.051492979  0.060112626   0.16209649  0.035821165  0.035353396  0.043489837    0.1146644 
  262000   -1790466.2    15108.226   -2797.3512    77.232592    89.181209    81.486324    2005.7371  0.051814692  0.051938686  0.061359985   0.16511336  0.036461043  0.035715981  0.045301635   0.11747866 
  263000   -1790497.8     15160.74   -2547.4552    77.232592    89.181209    81.486324    2012.7087  0.050082065  0.051613487  0.060992613   0.16268816   0.03528139  0.036043953  0.044517064   0.11584241 
  264000   -1790566.4    15016.991   -3119.5837    77.232592    89.181209    81.486324    1993.6249  0.049751062  0.049762703  0.060793896   0.16030766  0.035478397  0.034781637  0.044766221   0.11502625 
  265000   -1790424.3    15095.305   -2326.5242    77.232592    89.181209    81.486324    2004.0217  0.049687362  0.051143844  0.061083741   0.16191495  0.035301618  0.037091566  0.045439342   0.11783253 
  266000   -1790499.9    15112.329   -2800.5819    77.232592    89.181209    81.486324    2006.2818  0.049520835  0.050213639  0.060584274   0.16031875  0.035310371  0.035937201  0.045372168   0.11661974 
  267000   -1790570.2    15054.802   -2848.6276    77.232592    89.181209    81.486324    1998.6446  0.050220853  0.051253293  0.063038905   0.16451305  0.035594883  0.036750039  0.047548915   0.11989384 
  268000   -1790450.8    15051.975   -2446.5367    77.232592    89.181209    81.486324    1998.2693  0.050286516   0.05085431  0.060763973    0.1619048  0.035106104  0.036374789  0.044413726   0.11589462 
  269000   -1790471.8     15166.61   -1801.9642    77.232592    89.181209    81.486324    2013.4881  0.050754782  0.050874728  0.061800929   0.16343044  0.035521764  0.036381821   0.04583712    0.1177407 
  270000   -1790397.2    15073.553   -2463.1314    77.232592    89.181209    81.486324    2001.1339  0.050955727   0.05052989  0.061907187    0.1633928   0.03481891  0.036857037  0.046000652    0.1176766 
  271000   -1790442.8    15166.232    -1981.147    77.232592    89.181209    81.486324    2013.4378  0.051547178   0.05012465  0.060748784   0.16242061  0.035623458  0.036189108  0.044374105   0.11618667 
  272000   -1790624.9    15012.909   -3619.3589    77.232592    89.181209    81.486324     1993.083   0.05152334  0.050245826  0.063714192   0.16548336  0.035762778   0.03705511  0.047305352   0.12012324 
  273000   -1790507.7    15083.751   -2653.9569    77.232592    89.181209    81.486324    2002.4878  0.051004143  0.050968678  0.059984198   0.16195702  0.035276465  0.036676034  0.043526709   0.11547921 
  274000   -1790532.8    14995.951   -2336.8195    77.232592    89.181209    81.486324    1990.8317  0.050860502  0.051373242  0.062714799   0.16494854  0.034696107  0.036713038  0.045417523   0.11682667 
  275000   -1790452.9    15008.735   -2858.2034    77.232592    89.181209    81.486324    1992.5289  0.051198842  0.051717154  0.061920747   0.16483674  0.035799858  0.036502414  0.044960301   0.11726257 
  276000   -1790397.9    15038.435   -2286.9881    77.232592    89.181209    81.486324    1996.4717  0.051233791  0.051516406  0.062323476   0.16507367  0.035492696  0.037157673  0.045371633     0.118022 
  277000   -1790421.1    15128.828   -2109.4615    77.232592    89.181209    81.486324    2008.4721  0.052461972  0.050199653  0.061160626   0.16382225  0.036856552  0.036714504  0.045594158   0.11916521 
  278000   -1790490.6    15043.509   -2627.2629    77.232592    89.181209    81.486324    1997.1454  0.052251609  0.051527512  0.062119768   0.16589889  0.035469394   0.03697946  0.045043475   0.11749233 
  279000   -1790557.8    15083.349   -2745.3186    77.232592    89.181209    81.486324    2002.4344  0.051483819   0.05103101  0.061542713   0.16405754  0.036515491  0.036649806  0.045405697   0.11857099 
  280000   -1790416.1    15018.151   -2040.3647    77.232592    89.181209    81.486324    1993.7788  0.051156272  0.051237551  0.061308699   0.16370252  0.036918682  0.037199178  0.046164325   0.12028219 
  281000   -1790401.5    15065.753   -2651.8936    77.232592    89.181209    81.486324    2000.0984  0.052277017  0.052546458  0.062436911   0.16726039  0.036628638  0.038056763  0.046262673   0.12094807 
  282000     -1790570    15015.988   -3397.6896    77.232592    89.181209    81.486324    1993.4917   0.05202598  0.050526025  0.061755507   0.16430751  0.037627253  0.037166261  0.045306693   0.12010021 
  283000     -1790454    14991.442   -2710.6736    77.232592    89.181209    81.486324    1990.2331  0.051684255  0.052486724  0.062964789   0.16713577   0.03567539  0.037674625  0.046972987     0.120323 
  284000   -1790420.6    15072.369    -2387.162    77.232592    89.181209    81.486324    2000.9768  0.053038791  0.051131943   0.06249722   0.16666795  0.036932134  0.037615914  0.045971226   0.12051927 
  285000     -1790488    15052.037   -2401.6314    77.232592    89.181209    81.486324    1998.2776  0.052004704  0.051203925  0.062097256   0.16530589  0.036698936   0.03727152  0.046112808   0.12008326 
  286000   -1790521.5    15071.125   -2443.7956    77.232592    89.181209    81.486324    2000.8117  0.052289882  0.051919388  0.061160259   0.16536953    0.0365039  0.037867524  0.045498153   0.11986958 
  287000   -1790422.4    15060.198   -2107.5324    77.232592    89.181209    81.486324     1999.361  0.051399838  0.051208217  0.063113306   0.16572136  0.036195382  0.037206612  0.046421188   0.11982318 
  288000   -1790522.3    15117.666   -2865.3254    77.232592    89.181209    81.486324    2006.9903  0.051628535  0.050549035     0.061647   0.16382457  0.035943015  0.036630019  0.045239309   0.11781234 
  289000   -1790479.2    14935.561   -2889.7021    77.232592    89.181209    81.486324    1982.8144  0.052595732   0.04995115  0.062138647   0.16468553   0.03666967  0.037015139  0.046074174   0.11975898 
  290000   -1790451.9    15020.584   -2751.6328    77.232592    89.181209    81.486324    1994.1019  0.051802623  0.051694178  0.063021822   0.16651862  0.036748254   0.03794406   0.04711425   0.12180656 
  291000   -1790589.7    15047.761   -3020.2887    77.232592    89.181209    81.486324    1997.7099  0.052229172  0.050918946   0.06128453   0.16443265  0.036370049  0.037875864  0.045028324   0.11927424 
  292000   -1790445.9     15057.49   -2322.4742    77.232592    89.181209    81.486324    1999.0015  0.051825092  0.050953802    0.0639915   0.16677039  0.036214062  0.037311031  0.048156346   0.12168144 
  293000   -1790439.5    15059.466   -1842.5894    77.232592    89.181209    81.486324    1999.2639  0.052561971  0.051269428  0.062174805    0.1660062  0.036832422  0.038780886  0.045422134   0.12103544 
  294000     -1790445    15139.953    -2085.544    77.232592    89.181209    81.486324    2009.9491  0.052807639  0.051232706   0.06265974   0.16670009  0.037038748  0.037766716  0.046120088   0.12092555 
  295000     -1790454    15011.126   -2645.4649    77.232592    89.181209    81.486324    1992.8463  0.051794625  0.051921843  0.062854401   0.16657087  0.036239904   0.03839051  0.046756524   0.12138694 
  296000   -1790358.5    14991.579   -1825.6918    77.232592    89.181209    81.486324    1990.2512  0.052319642  0.052831569  0.062203686    0.1673549  0.036970013  0.039209473   0.04596552   0.12214501 
  297000   -1790509.5    15084.011   -2478.9572    77.232592    89.181209    81.486324    2002.5223  0.053088281  0.050236891  0.062908746   0.16623392  0.037511007  0.037507165  0.046715232    0.1217334 
  298000     -1790450    15036.226   -2497.1889    77.232592    89.181209    81.486324    1996.1785   0.05321495  0.052883941  0.062831587   0.16893048  0.037779929  0.040135361  0.045996768   0.12391206 
  299000   -1790404.6    15112.669   -2150.7045    77.232592    89.181209    81.486324     2006.327  0.052243179  0.051418475  0.063981395   0.16764305  0.036867904  0.037751027  0.046879399   0.12149833 
  300000   -1790435.9    15065.857   -2732.2035    77.232592    89.181209    81.486324    2000.1123  0.051948053  0.051337499  0.062424933   0.16571049  0.037492108  0.037301581  0.046655208    0.1214489 
  301000   -1790457.8    15067.501   -2069.9468    77.232592    89.181209    81.486324    2000.3305  0.052233446  0.050197552  0.062990843   0.16542184  0.036620602  0.036719411  0.047089638   0.12042965 
  302000   -1790493.9    15074.719    -3017.299    77.232592    89.181209    81.486324    2001.2887  0.053148097  0.053067609  0.063518974   0.16973468  0.037848532   0.03878091  0.046867871   0.12349731 
  303000   -1790466.6    14991.702   -3013.8919    77.232592    89.181209    81.486324    1990.2676   0.05186243  0.053246411  0.063942741   0.16905158  0.036821506  0.038866133  0.047223606   0.12291125 
  304000   -1790333.1    15038.938   -2017.0199    77.232592    89.181209    81.486324    1996.5385  0.052416957  0.051751776  0.063752041   0.16792077  0.037548143  0.038533983  0.046548768   0.12263089 
  305000   -1790566.1    15022.062   -3302.8078    77.232592    89.181209    81.486324    1994.2982  0.052915812  0.053205323  0.064555183   0.17067632  0.037739791  0.039112058  0.047785374   0.12463722 
  306000   -1790482.7    15086.937   -2850.3612    77.232592    89.181209    81.486324    2002.9108  0.051890733  0.051229956  0.062518715    0.1656394  0.037204348  0.038145409  0.047006258   0.12235602 
  307000   -1790490.6    15074.429   -2667.2037    77.232592    89.181209    81.486324    2001.2502  0.052622956  0.052020235  0.063470931   0.16811412  0.037836165  0.038366971  0.047761029   0.12396417 
  308000   -1790480.4     15038.08   -2856.6491    77.232592    89.181209    81.486324    1996.4247  0.053619806   0.05168663  0.062199635   0.16750607  0.037996926  0.037085096  0.046656865   0.12173889 
  309000   -1790451.3    15163.365   -1907.0074    77.232592    89.181209    81.486324    2013.0572  0.053065504  0.051934338   0.06327533   0.16827517  0.036999621  0.038257397  0.046398004   0.12165502 
  310000   -1790428.8    15025.202   -2267.6959    77.232592    89.181209    81.486324     1994.715  0.053119299  0.050807703  0.062471367   0.16639837  0.037348751   0.03770488  0.046806791   0.12186042 
  311000   -1790520.7    15017.883    -2938.391    77.232592    89.181209    81.486324    1993.7434  0.053909129  0.051048198  0.061284041   0.16624137   0.03861548  0.037532644  0.045510381   0.12165851 
  312000   -1790511.5    15031.437   -2690.1302    77.232592    89.181209    81.486324    1995.5428  0.052499415  0.053488147  0.062887023   0.16887458  0.036652467  0.039444194  0.046743621   0.12284028 
  313000   -1790430.4    14972.052   -2955.3771    77.232592    89.181209    81.486324     1987.659  0.053523825  0.049770499  0.062337994   0.16563232  0.038243138  0.036551126   0.04529043   0.12008469 
  314000   -1790512.3    15032.835   -2677.2569    77.232592    89.181209    81.486324    1995.7284  0.051594468  0.053155357  0.064841339   0.16959116   0.03647091  0.039129806  0.047724123   0.12332484 
  315000   -1790453.9    15027.926   -2391.2113    77.232592    89.181209    81.486324    1995.0766  0.052748044   0.05091235  0.063079845   0.16674024  0.037850574  0.037922212  0.047240551   0.12301334 
  316000   -1790480.4    15099.822   -2935.4653    77.232592    89.181209    81.486324    2004.6214    0.0524296   0.05247648  0.063279433   0.16818551  0.037257065  0.037693974  0.045882774   0.12083381 
  317000   -1790466.3    15066.802   -2363.5811    77.232592    89.181209    81.486324    2000.2377  0.052638124  0.051460913  0.062094775   0.16619381  0.037505497  0.037786054  0.046080464   0.12137201 
  318000     -1790503     15091.71   -3232.8973    77.232592    89.181209    81.486324    2003.5444  0.051753235  0.051633932  0.062360989   0.16574816  0.036474775  0.037800026  0.045254182   0.11952898 
  319000   -1790441.4    15061.635   -2119.8216    77.232592    89.181209    81.486324    1999.5517  0.052413558  0.052749274  0.062946821   0.16810965  0.037624079   0.03826165  0.046636889   0.12252262 
  320000   -1790378.9    15042.974   -1846.7392    77.232592    89.181209    81.486324    1997.0744  0.052424657  0.051929055  0.062416281   0.16676999   0.03730985  0.036440699  0.045228646    0.1189792 
  321000   -1790593.1    15130.021   -3267.8849    77.232592    89.181209    81.486324    2008.6306   0.05198595  0.053704402  0.062916544    0.1686069    0.0367642  0.039509651  0.046016812   0.12229066 
  322000     -1790500    14980.489   -2923.8731    77.232592    89.181209    81.486324    1988.7789  0.052676677  0.052162828   0.06234279    0.1671823  0.036988045  0.037603775  0.046645667   0.12123749 
  323000   -1790508.6    15147.058   -2602.0438    77.232592    89.181209    81.486324    2010.8923  0.052442605  0.053115107  0.062843891    0.1684016  0.037585599  0.038226883  0.046675262   0.12248774 
  324000   -1790537.8    15012.679   -2708.3632    77.232592    89.181209    81.486324    1993.0524  0.050918845  0.053660035  0.063651981   0.16823086  0.036742396  0.039139225  0.047397412   0.12327903 
  325000   -1790416.7    15065.339   -2711.0345    77.232592    89.181209    81.486324    2000.0435  0.051985201  0.053474455  0.061728974   0.16718863  0.037125365  0.038521666  0.046010151   0.12165718 
  326000     -1790550    15127.189   -2643.3096    77.232592    89.181209    81.486324    2008.2546  0.051958216  0.052290547  0.063695749   0.16794451  0.038010195  0.038110487  0.048054731   0.12417541 
  327000   -1790435.6    15021.554   -2255.2133    77.232592    89.181209    81.486324    1994.2307  0.051982798  0.054088305  0.063261895     0.169333  0.037278488   0.03946533  0.046739873   0.12348369 
  328000   -1790467.1    15138.593   -2300.4411    77.232592    89.181209    81.486324    2009.7685  0.052731979  0.053815716  0.062145944   0.16869364  0.037828762  0.038924772  0.046246199   0.12299973 
  329000   -1790461.8    14989.137   -2900.5641    77.232592    89.181209    81.486324    1989.9271  0.052956618  0.052822419   0.06308182   0.16886086  0.038747328  0.038614735  0.048026781   0.12538884 
  330000   -1790421.8    14991.117   -2490.0059    77.232592    89.181209    81.486324    1990.1899    0.0516498  0.053051383  0.062371605   0.16707279  0.037637178   0.03888543    0.0462759   0.12279851 
  331000   -1790431.7    15182.653   -2026.1513    77.232592    89.181209    81.486324    2015.6179  0.051646682  0.054325238  0.064319407   0.17029133  0.036525257  0.038984068  0.047677422   0.12318675 
  332000   -1790479.9     14970.52   -2449.2559    77.232592    89.181209    81.486324    1987.4555  0.052349126  0.051904994  0.062843531   0.16709765  0.037834693  0.036883332  0.046319417   0.12103744 
  333000   -1790437.9    15134.051   -2748.2637    77.232592    89.181209    81.486324    2009.1656  0.052573867  0.052658842   0.06394208   0.16917479  0.037742358   0.03778026  0.047078873   0.12260149 
  334000   -1790468.8    15108.897   -2473.1078    77.232592    89.181209    81.486324    2005.8262  0.052356151  0.052449545  0.062332707    0.1671384   0.03718244  0.037945101  0.046657354    0.1217849 
  335000   -1790469.3    15019.698   -2182.1106    77.232592    89.181209    81.486324    1993.9843  0.052052443  0.051161738  0.062801538   0.16601572   0.03653787  0.037111509  0.047239694   0.12088907 
  336000   -1790564.2    15095.539   -3027.2278    77.232592    89.181209    81.486324    2004.0528  0.052866194  0.052176065  0.062808153   0.16785041  0.037348896  0.038005883  0.047203257   0.12255804 
  337000   -1790480.4    15116.228   -1708.5673    77.232592    89.181209    81.486324    2006.7995  0.053487462  0.053725487  0.064278165   0.17149111  0.037969143   0.03908672  0.048284887   0.12534075 
  338000     -1790492    15071.425   -2757.5311    77.232592    89.181209    81.486324    2000.8515  0.052293775  0.053508524  0.062724286   0.16852658  0.037445797  0.039784278  0.046341537   0.12357161 
  339000   -1790429.3    15090.947   -2667.3997    77.232592    89.181209    81.486324    2003.4432  0.053660792  0.051444348  0.062408098   0.16751324  0.038485672  0.037438091  0.047649805   0.12357357 
  340000   -1790450.2    15099.927   -2225.4601    77.232592    89.181209    81.486324    2004.6353  0.053403114  0.054741936  0.063847195   0.17199224  0.037852132   0.03954743  0.047601271   0.12500083 
  341000   -1790377.1    15182.234   -1081.8753    77.232592    89.181209    81.486324    2015.5622  0.052487728  0.053551263  0.062459384   0.16849837  0.036898216  0.038849728  0.047022289   0.12277023 
  342000   -1790530.9    15149.869   -2400.1039    77.232592    89.181209    81.486324    2011.2655   0.05324377  0.051774194  0.061373911   0.16639187  0.038635277  0.037668055  0.045838914   0.12214225 
  343000   -1790487.8    15053.569   -2378.0495    77.232592    89.181209    81.486324    1998.4809  0.052741393  0.052783131  0.064064386   0.16958891  0.037258197  0.038090244  0.048353873   0.12370231 
  344000   -1790523.4    15071.133   -2785.6942    77.232592    89.181209    81.486324    2000.8127  0.052798095  0.053156433  0.063994974    0.1699495  0.037799206  0.038566946  0.047981882   0.12434803 
  345000   -1790455.5    15167.873   -1959.7575    77.232592    89.181209    81.486324    2013.6556  0.051808975  0.053858297  0.063833044   0.16950032  0.038043354  0.038979175  0.048129819   0.12515235 
  346000   -1790445.4    15080.781   -2023.2519    77.232592    89.181209    81.486324    2002.0935  0.052488951  0.052511516  0.063517497   0.16851796  0.037497173  0.037823582  0.047409949    0.1227307 
  347000   -1790493.3    14947.031   -1867.6905    77.232592    89.181209    81.486324    1984.3372  0.053154479  0.052786778  0.064254525   0.17019578  0.037289939  0.038310238   0.04663898   0.12223916 
  348000   -1790464.4    14940.457   -2836.8318    77.232592    89.181209    81.486324    1983.4644  0.052065301  0.053378349  0.064445767   0.16988942  0.036700484  0.037942648  0.048319406   0.12296254 
  349000   -1790419.8    15002.087   -2574.6974    77.232592    89.181209    81.486324    1991.6462  0.052153311  0.053336469  0.062920361   0.16841014   0.03684639  0.037477543  0.047226519   0.12155045 
  350000   -1790431.6    15057.514    -2273.822    77.232592    89.181209    81.486324    1999.0046  0.053097783  0.054461685   0.06503165   0.17259112  0.036888335  0.039209047  0.048698004   0.12479539 
  351000   -1790429.3    14979.018   -2519.1137    77.232592    89.181209    81.486324    1988.5837  0.053599121     0.053746  0.064048946   0.17139407  0.037535843  0.038443117  0.047687701   0.12366666 
  352000   -1790483.9    15092.399   -2342.6237    77.232592    89.181209    81.486324     2003.636  0.053647134  0.054600315  0.064999355    0.1732468  0.037757057  0.038512862  0.047997984    0.1242679 
  353000   -1790478.2    15029.913   -2420.7717    77.232592    89.181209    81.486324    1995.3404  0.053035228  0.053463213  0.064551292   0.17104973  0.037526474  0.037762407  0.046878386   0.12216727 
  354000   -1790434.4    15000.923   -2131.8931    77.232592    89.181209    81.486324    1991.4917  0.053873008  0.054840141  0.064275405   0.17298855  0.037984784   0.03902785  0.047478224   0.12449086 
  355000   -1790480.6    15144.214   -2828.8189    77.232592    89.181209    81.486324    2010.5148  0.053044776  0.054293251  0.064745895   0.17208392  0.037300941  0.037673428   0.04732979   0.12230416 
  356000   -1790474.1    15083.865   -2231.0772    77.232592    89.181209    81.486324     2002.503  0.053003752  0.054207804  0.065273432   0.17248499  0.037062312  0.037847087  0.048658588   0.12356799 
  357000   -1790464.2    14985.433   -2568.2889    77.232592    89.181209    81.486324    1989.4354  0.052866723   0.05440912  0.065404387   0.17268023  0.037228024  0.038187262  0.047601287   0.12301657 
  358000   -1790479.3     15065.19   -2875.1748    77.232592    89.181209    81.486324    2000.0237  0.052876098   0.05389251  0.065301959   0.17207057  0.037984236   0.03799516  0.047176976   0.12315637 
  359000   -1790548.2    15049.244   -3006.0172    77.232592    89.181209    81.486324    1997.9067  0.053690804  0.055375495  0.065240985   0.17430728  0.038458293  0.039057888  0.048581817     0.126098 
  360000   -1790449.3    15047.235    -2543.588    77.232592    89.181209    81.486324      1997.64  0.053482563  0.053179957  0.065409865   0.17207238  0.039146233   0.03719838  0.048514082   0.12485869 
  361000   -1790495.5    14979.325   -2113.3605    77.232592    89.181209    81.486324    1988.6244  0.052906234  0.054850228  0.065876452   0.17363291    0.0375231  0.038238305  0.049147383   0.12490879 
  362000   -1790540.7    15052.125   -2821.6236    77.232592    89.181209    81.486324    1998.2893  0.052524101  0.054203304  0.063921453   0.17064886  0.037777104  0.038067306  0.046839342   0.12268375 
  363000   -1790474.7    15013.498   -2539.8584    77.232592    89.181209    81.486324    1993.1612  0.054079404   0.05547136  0.065409528   0.17496029  0.037752933   0.03850941  0.048750196   0.12501254 
  364000   -1790526.4    15046.319   -2890.1623    77.232592    89.181209    81.486324    1997.5184  0.053428325  0.055292492  0.065526796   0.17424761   0.03800915  0.038756815  0.048224055   0.12499002 
  365000   -1790396.9    15166.214    -2367.929    77.232592    89.181209    81.486324    2013.4354  0.053385588  0.054903301    0.0657913   0.17408019  0.037971814  0.038840183  0.048384303    0.1251963 
  366000   -1790489.1    15025.698   -3270.7262    77.232592    89.181209    81.486324    1994.7809  0.052739994  0.055929454  0.065232938   0.17390239  0.038126027  0.039630351  0.048625259   0.12638164 
  367000   -1790518.8    15092.054   -2854.7814    77.232592    89.181209    81.486324    2003.5901  0.052982208  0.054854683  0.063170136   0.17100703  0.037041796  0.037928868  0.047133213   0.12210388 
  368000   -1790527.9     15088.56   -3399.2267    77.232592    89.181209    81.486324    2003.1263  0.053463984   0.05507359  0.066020097   0.17455767  0.037584954  0.038789744   0.04821985   0.12459455 
  369000   -1790433.7    15037.615   -2516.3177    77.232592    89.181209    81.486324     1996.363  0.054375001  0.055562714  0.064377748   0.17431546  0.039142057  0.039404959  0.047866333   0.12641335 
  370000   -1790445.1    15039.664   -2051.6305    77.232592    89.181209    81.486324     1996.635  0.054244854  0.054370668  0.065090488   0.17370601  0.038681064  0.037881941  0.048015481   0.12457849 
  371000   -1790428.4    15091.891   -2121.4742    77.232592    89.181209    81.486324    2003.5685  0.053435797  0.056104623  0.066222917   0.17576334  0.037836667   0.03923412   0.04971705   0.12678784 
  372000   -1790578.5    15013.236   -3229.9129    77.232592    89.181209    81.486324    1993.1264  0.052806546  0.054868388  0.064984582   0.17265952  0.036984698  0.038596394  0.047742575   0.12332367 
  373000   -1790515.5    14955.477   -3168.7235    77.232592    89.181209    81.486324    1985.4585  0.054229119  0.055814199   0.06457411   0.17461743  0.037926555  0.039168024  0.047739113   0.12483369 
  374000   -1790455.8     15022.34   -2850.9817    77.232592    89.181209    81.486324     1994.335  0.053848099  0.055317892  0.066238783   0.17540477  0.038322558  0.038409147  0.049551618   0.12628332 
  375000     -1790543    15168.816   -2652.1028    77.232592    89.181209    81.486324    2013.7809  0.054709618  0.056075549  0.064341036    0.1751262     0.038298  0.039804358  0.047536994   0.12563935 
  376000   -1790408.6    14972.601   -2427.3926    77.232592    89.181209    81.486324    1987.7318  0.053782979  0.053949983  0.064659601   0.17239256  0.037152571  0.037864332  0.048631665   0.12364857 
  377000   -1790485.8    14974.709   -2716.8374    77.232592    89.181209    81.486324    1988.0117  0.053294827  0.055262223  0.065111982   0.17366903  0.037833957  0.038331652  0.048614263   0.12477987 
  378000   -1790497.7    15058.778    -2582.421    77.232592    89.181209    81.486324    1999.1724   0.05480766  0.055531995  0.063750211   0.17408987   0.03831668  0.039483816  0.047583616   0.12538411 
[...]
  907000   -1790476.2    15073.601   -3060.6364    77.232592    89.181209    81.486324    2001.1403  0.068903687  0.071501313  0.078430943   0.21883594   0.04587937  0.044979788  0.056258396   0.14711755 
  908000   -1790539.4    15010.852   -2816.4395    77.232592    89.181209    81.486324    1992.8099  0.067383612  0.070215308  0.078201082       0.2158  0.044342235  0.043810779  0.052910306   0.14106332 
  909000   -1790403.6    14979.222   -2473.9939    77.232592    89.181209    81.486324    1988.6108  0.067449761  0.071691318  0.079305144   0.21844622  0.044888362  0.044906022  0.055298287   0.14509267 
  910000   -1790484.6    15030.273   -2966.3287    77.232592    89.181209    81.486324    1995.3882  0.068656131  0.070611972  0.079436841   0.21870494    0.0452628   0.04453599   0.05544937   0.14524816 
  911000   -1790511.1    15070.815   -2546.4261    77.232592    89.181209    81.486324    2000.7704  0.068071095  0.070839024   0.07929213   0.21820225  0.046136967  0.045382021  0.054838789   0.14635778 
  912000     -1790503    15103.766   -2759.1944    77.232592    89.181209    81.486324     2005.145  0.068394201  0.070987921  0.079119236   0.21850136  0.045586536  0.044343374   0.05421052   0.14414043 
  913000   -1790464.7    15222.735   -2484.0009    77.232592    89.181209    81.486324    2020.9391   0.06871748  0.071469921  0.078599429   0.21878683  0.045759261   0.04547921  0.054406729    0.1456452 
  914000   -1790528.6     15041.32   -2653.3395    77.232592    89.181209    81.486324    1996.8548  0.066721958  0.070249782  0.078016594   0.21498833  0.044849108  0.044579518  0.054490387   0.14391901 
  915000   -1790522.4    15087.489   -2579.7606    77.232592    89.181209    81.486324    2002.9841  0.068677386  0.070485824  0.078816331   0.21797954  0.046191138  0.045227353  0.055100143   0.14651863 
  916000     -1790508    15053.609   -2360.3271    77.232592    89.181209    81.486324    1998.4863  0.067530199  0.072083179  0.078215917   0.21782929  0.044857766  0.045325354   0.05398903   0.14417215 
  917000     -1790502    15090.928   -2505.3698    77.232592    89.181209    81.486324    2003.4406  0.067803099  0.070190233  0.078516306   0.21650964  0.044963504  0.043769375  0.054687709   0.14342059 
  918000   -1790570.7    15034.997   -3663.3372    77.232592    89.181209    81.486324    1996.0154  0.067405639  0.071096745  0.076941152   0.21544354   0.04553961   0.04569923  0.052605201   0.14384404 
  919000   -1790539.1    15156.182   -2973.3751    77.232592    89.181209    81.486324    2012.1036  0.067812253  0.070011281  0.078791985   0.21661552  0.045495056  0.044832366  0.054200828   0.14452825 
  920000   -1790486.4    15087.412   -2792.1245    77.232592    89.181209    81.486324    2002.9738  0.067027756  0.071103542  0.077740835   0.21587213  0.045153625  0.045047716  0.053544326   0.14374567 
  921000   -1790508.6    15066.459   -2945.5906    77.232592    89.181209    81.486324    2000.1922  0.066687585  0.071859238  0.077499871   0.21604669  0.045162252  0.045794751  0.054457124   0.14541413 
  922000   -1790476.3    15015.331   -2712.7444    77.232592    89.181209    81.486324    1993.4046  0.067544972  0.071144045  0.080496531   0.21918555  0.044718936  0.044362771  0.055954402   0.14503611 
  923000   -1790506.2    15039.409   -2515.6391    77.232592    89.181209    81.486324     1996.601  0.068032337  0.071317239  0.077830859   0.21718044  0.045716792  0.045252613  0.052990302   0.14395971 
  924000   -1790516.1    15115.045   -2618.6039    77.232592    89.181209    81.486324    2006.6423  0.068111316  0.071091289  0.078691913   0.21789452  0.045595561  0.045592255  0.055613651   0.14680147 
  925000   -1790533.5    14966.574   -2780.2832    77.232592    89.181209    81.486324    1986.9317  0.067734549  0.070112853   0.07773995   0.21558735  0.045066134  0.045360938  0.054408633    0.1448357 
  926000     -1790488    15059.383   -2957.2033    77.232592    89.181209    81.486324    1999.2528  0.067860943  0.070767348  0.078213717   0.21684201  0.045026332  0.045964502  0.053869412   0.14486025 
  927000   -1790519.5     15062.03   -2562.2709    77.232592    89.181209    81.486324    1999.6042  0.069240509  0.070522612  0.081319059   0.22108218  0.045984963   0.04532794   0.05742876   0.14874166 
  928000   -1790425.8     15089.74   -2011.9939    77.232592    89.181209    81.486324    2003.2829  0.068691597  0.071055108  0.078496955   0.21824366  0.045841079  0.045550319   0.05554559   0.14693699 
  929000   -1790485.3    15047.362   -2131.8839    77.232592    89.181209    81.486324    1997.6569  0.068532513   0.07020829  0.078857151   0.21759795  0.045403104  0.045095283  0.054537376   0.14503576 
  930000   -1790470.4    15118.956   -2311.4746    77.232592    89.181209    81.486324    2007.1616  0.068473377  0.072075667  0.077982526   0.21853157  0.045974129  0.045340019  0.054436678   0.14575083 
  931000     -1790491    15173.108   -2346.5998    77.232592    89.181209    81.486324    2014.3507  0.068077157  0.069519808  0.077918869   0.21551583   0.04522722  0.044771469   0.05469851    0.1446972 
  932000   -1790518.7    15080.996   -2601.0357    77.232592    89.181209    81.486324    2002.1221  0.068753105  0.070484694  0.078394992   0.21763279  0.046321785  0.044995162  0.055750435   0.14706738 
  933000   -1790479.8    15000.331   -2059.7564    77.232592    89.181209    81.486324    1991.4132  0.068072105  0.071088745  0.079053478   0.21821433  0.045966946  0.046015108  0.054267649    0.1462497 
  934000   -1790508.5    15125.906   -3025.7458    77.232592    89.181209    81.486324    2008.0843  0.068034608  0.070289725  0.079324056   0.21764839   0.04553291  0.044566068  0.055535867   0.14563484 
  935000   -1790563.9    15082.202   -3019.6252    77.232592    89.181209    81.486324    2002.2822  0.067862798  0.070665447  0.079432651    0.2179609  0.046125401  0.045123001  0.055775853   0.14702426 
  936000   -1790503.8    15090.902   -3025.4188    77.232592    89.181209    81.486324    2003.4372  0.068384031  0.069932049  0.077778457   0.21609454  0.045779496  0.045093181  0.055234786   0.14610746 
  937000   -1790468.2    15013.451   -2238.8365    77.232592    89.181209    81.486324     1993.155     0.067829  0.071717344   0.07867441   0.21822075  0.045881525  0.046710724  0.055519844   0.14811209 
  938000   -1790507.7    15236.838   -2527.0108    77.232592    89.181209    81.486324    2022.8114  0.066835196  0.069647698  0.077889952   0.21437285  0.044275072  0.044742371  0.054120029   0.14313747 
  939000   -1790515.4     15083.83   -2473.3898    77.232592    89.181209    81.486324    2002.4983  0.067173875  0.070333894  0.077271591   0.21477936  0.045102983  0.045776607  0.053241972   0.14412156 
  940000   -1790519.3    15088.599   -2817.8482    77.232592    89.181209    81.486324    2003.1314  0.068292178  0.070760581  0.077523827   0.21657659  0.046029395  0.045416078  0.053933636   0.14537911 
  941000   -1790477.3    15093.714   -2531.3766    77.232592    89.181209    81.486324    2003.8105  0.068108956  0.070686752  0.079930539   0.21872625  0.046021451  0.046562206  0.055391163   0.14797482 
  942000   -1790463.1    14984.093   -2745.2841    77.232592    89.181209    81.486324    1989.2575  0.067541782   0.07168586  0.077883116   0.21711076  0.045583043  0.046284641  0.054758301   0.14662599 
  943000   -1790477.1     15126.72   -2533.3804    77.232592    89.181209    81.486324    2008.1923  0.068587914  0.070883958  0.077985681   0.21745755  0.045068447  0.046102714  0.054843381   0.14601454 
  944000   -1790472.3    15064.734   -2658.7552    77.232592    89.181209    81.486324    1999.9632  0.067786386  0.071253851  0.079012474   0.21805271  0.045253982  0.046902423  0.054755969   0.14691237 
  945000   -1790426.4    14997.839   -2917.1073    77.232592    89.181209    81.486324    1991.0824  0.069075635  0.071160859  0.078284441   0.21852094  0.046654852  0.045803977  0.054174265   0.14663309 
  946000   -1790537.9    15021.909   -3627.3226    77.232592    89.181209    81.486324    1994.2778  0.069037249  0.071746789  0.078111253   0.21889529  0.045709369  0.046288247  0.054505019   0.14650264 
  947000   -1790545.8    15032.796   -2819.2738    77.232592    89.181209    81.486324    1995.7231  0.068432468  0.071295389  0.077742235   0.21747009  0.045144223  0.046479912  0.053553758   0.14517789 
  948000   -1790486.2    15138.778   -2285.9591    77.232592    89.181209    81.486324    2009.7931  0.068723259  0.071471852  0.077620552   0.21781566  0.045940722  0.045503664  0.053021822   0.14446621 
  949000   -1790531.5    14999.192   -2893.6985    77.232592    89.181209    81.486324     1991.262  0.068797011  0.072369153  0.079931949   0.22109811  0.045903601  0.047588892  0.054885808    0.1483783 
  950000   -1790541.1    15110.519   -2613.0503    77.232592    89.181209    81.486324    2006.0414  0.067340519  0.069951064  0.077525319    0.2148169  0.044775828  0.045963925  0.054124281   0.14486403 
  951000   -1790383.2    15049.662   -2711.7152    77.232592    89.181209    81.486324    1997.9623    0.0691529  0.070969884  0.079192012    0.2193148  0.045497593  0.045986098  0.053939252   0.14542294 
  952000   -1790504.2    15009.638   -2812.6973    77.232592    89.181209    81.486324    1992.6488  0.067961215  0.071697981  0.080336662   0.21999586   0.04524105  0.046825872  0.055737842   0.14780476 
  953000   -1790507.1    14995.075   -2675.6516    77.232592    89.181209    81.486324    1990.7153   0.06890774  0.071893699  0.078590285   0.21939172  0.045917503  0.047022151  0.054855622   0.14779528 
  954000   -1790536.7    15055.129    -2982.301    77.232592    89.181209    81.486324    1998.6881  0.068870687  0.071475253   0.07897551   0.21932145  0.046088629  0.046257917  0.053933136   0.14627968 
  955000   -1790477.7    15018.466    -2895.609    77.232592    89.181209    81.486324    1993.8207  0.067986044  0.071673997  0.079807031   0.21946707  0.044769419  0.046536403  0.056396491   0.14770231 
  956000   -1790580.6    14963.893   -3691.0308    77.232592    89.181209    81.486324    1986.5757  0.068185214  0.071039561   0.07948821   0.21871299  0.045051632  0.045715294  0.053979745   0.14474667 
  957000   -1790531.2    15062.426   -2798.7569    77.232592    89.181209    81.486324    1999.6568  0.069676619  0.069956263  0.079818927   0.21945181  0.047028991  0.046469294  0.056058949   0.14955723 
  958000   -1790532.4    15058.667   -3213.8389    77.232592    89.181209    81.486324    1999.1577  0.068844795  0.070518941  0.079199528   0.21856326  0.045987016  0.045690341  0.055007452   0.14668481 
  959000   -1790499.8    15060.976   -2545.7737    77.232592    89.181209    81.486324    1999.4643  0.067235791   0.06978737  0.079702786   0.21672595  0.044691736  0.045379684   0.05506248    0.1451339 
  960000   -1790456.7    14956.544    -3044.657    77.232592    89.181209    81.486324    1985.6001  0.068380703  0.071168541  0.079238926   0.21878817  0.045480762  0.046746152  0.055089676   0.14731659 
  961000   -1790491.2    14938.946   -3051.0369    77.232592    89.181209    81.486324    1983.2638  0.068742012  0.070993892  0.078911434   0.21864734  0.046078396  0.045808083  0.054519124    0.1464056 
  962000   -1790489.6    15028.386    -2654.044    77.232592    89.181209    81.486324    1995.1377  0.069056198  0.071183865  0.078675439    0.2189155  0.046427219  0.047191552  0.054950421   0.14856919 
  963000   -1790571.2    15064.494   -3543.2296    77.232592    89.181209    81.486324    1999.9313  0.069401283   0.07125966  0.077440879   0.21810182  0.045604539  0.046442929  0.052904246   0.14495171 
  964000   -1790467.5    15101.355   -2707.3817    77.232592    89.181209    81.486324    2004.8249  0.068576997   0.07044775  0.080356864   0.21938161  0.045500031  0.046338284  0.055485771   0.14732409 
  965000   -1790556.2    15051.489   -3151.7353    77.232592    89.181209    81.486324    1998.2048  0.068356704  0.071501904  0.078791863   0.21865047  0.045735346  0.046610699  0.054278605   0.14662465 
  966000   -1790429.8     14979.72   -2407.7526    77.232592    89.181209    81.486324    1988.6768  0.070101048  0.071703748  0.079681757   0.22148655  0.046648844  0.047123771   0.05574452   0.14951714 
  967000   -1790510.7    15066.706   -2400.4466    77.232592    89.181209    81.486324    2000.2249  0.069151699  0.070660426  0.081059964   0.22087209  0.045562613   0.04604457  0.056638646   0.14824583 
  968000   -1790567.3    15079.229   -3424.6317    77.232592    89.181209    81.486324    2001.8875   0.06921071  0.070026025  0.078951647   0.21818838  0.045761379  0.046413984  0.054219373   0.14639474 
  969000   -1790440.5    15065.168   -2398.1881    77.232592    89.181209    81.486324    2000.0208   0.06971602  0.073097229  0.079820076   0.22263332  0.046246513  0.048026359  0.055879429    0.1501523 
  970000   -1790416.7    15126.389   -1788.8998    77.232592    89.181209    81.486324    2008.1484  0.070164924  0.070775745  0.079748587   0.22068926  0.046411227  0.045819566  0.053943174   0.14617397 
  971000   -1790485.9    15012.471   -2155.1107    77.232592    89.181209    81.486324    1993.0249  0.069275956   0.07088412  0.079739738   0.21989981  0.046447878  0.046070548  0.054895747   0.14741417 
  972000     -1790439    15114.933   -2241.5527    77.232592    89.181209    81.486324    2006.6274  0.070258079  0.072319712  0.080088688   0.22266648  0.046706539  0.046096476  0.056017351   0.14882037 
  973000   -1790504.8    15072.846   -3231.3437    77.232592    89.181209    81.486324    2001.0401  0.068419519  0.070622398  0.079014342   0.21805626  0.044751595  0.046379606  0.054047176   0.14517838 
  974000   -1790532.4    15071.024   -3191.7106    77.232592    89.181209    81.486324    2000.7982  0.069232182  0.072108165  0.080707883   0.22204823  0.046475755   0.04724375  0.054971844   0.14869135 
  975000   -1790486.4    14976.808   -2609.8785    77.232592    89.181209    81.486324    1988.2902  0.070257112  0.072037688  0.079398955   0.22169375  0.047134962  0.047050952  0.055613872   0.14979979 
  976000   -1790482.3    15019.516   -2614.6057    77.232592    89.181209    81.486324    1993.9602  0.069259461  0.072611358  0.080550095   0.22242091  0.046870354  0.048021554  0.055925486   0.15081739 
  977000   -1790418.4    15123.044   -2238.9084    77.232592    89.181209    81.486324    2007.7043  0.069603663  0.071423487  0.080915616   0.22194277   0.04751714  0.046852715   0.05593984    0.1503097 
  978000   -1790553.8    14982.702   -3572.6317    77.232592    89.181209    81.486324    1989.0728  0.069732815  0.072735778  0.080634462   0.22310306   0.04670439  0.048155027  0.056027599   0.15088702 
  979000   -1790521.9    15058.323   -1989.8868    77.232592    89.181209    81.486324    1999.1121  0.069996386  0.073521856  0.081391151   0.22490939   0.04704031  0.047649541  0.055409732   0.15009958 
  980000   -1790496.2    15109.132   -2456.1675    77.232592    89.181209    81.486324    2005.8573  0.070393704  0.072099121  0.081407293   0.22390012  0.046089854  0.046514634   0.05620633   0.14881082 
  981000   -1790531.9    15091.302   -2994.9147    77.232592    89.181209    81.486324    2003.4903  0.069850405  0.072393677  0.080148403   0.22239248  0.046609769  0.047084499  0.054923869   0.14861814 
  982000   -1790406.6    15056.459   -2730.6543    77.232592    89.181209    81.486324    1998.8646  0.070252695  0.071891249  0.080835879   0.22297982  0.046814767  0.047185301  0.055851897   0.14985196 
  983000   -1790487.6    14982.014   -2793.5213    77.232592    89.181209    81.486324    1988.9814  0.071286284  0.071778611  0.079115803    0.2221807  0.047062408  0.046263147  0.053595414   0.14692097 
  984000   -1790518.9    14993.539   -3017.1824    77.232592    89.181209    81.486324    1990.5114   0.07036821  0.070962002  0.078764185    0.2200944  0.047141098  0.045966797  0.055162774   0.14827067 
  985000     -1790589    15018.838   -3448.4858    77.232592    89.181209    81.486324    1993.8701   0.06951932  0.073865429  0.079465764   0.22285051    0.0459174  0.048076288  0.054255629   0.14824932 
  986000   -1790520.8     15103.45    -3271.068    77.232592    89.181209    81.486324     2005.103  0.070485893  0.071220367  0.079994942    0.2217012  0.046894563  0.047122162  0.054135936   0.14815266 
  987000     -1790440    15032.809   -1962.6001    77.232592    89.181209    81.486324    1995.7248  0.070214143  0.071089255  0.079434294   0.22073769  0.046362484  0.047017274  0.055092858   0.14847262 
  988000   -1790532.2    15045.026   -2286.0993    77.232592    89.181209    81.486324    1997.3467  0.070862222  0.072532155  0.078845573   0.22223995  0.047170813  0.047201968   0.05445021   0.14882299 
  989000   -1790583.3      15113.7   -2129.2885    77.232592    89.181209    81.486324    2006.4638   0.06968438  0.070182459  0.079737511   0.21960435   0.04690165  0.046123923  0.055085759   0.14811133 
  990000   -1790542.8    15142.378   -3304.0636    77.232592    89.181209    81.486324    2010.2711   0.06998881  0.072559934  0.078613592   0.22116234   0.04673925  0.047521749  0.053973151   0.14823415 
  991000   -1790465.6    15121.476   -1877.7673    77.232592    89.181209    81.486324    2007.4961  0.070519205  0.070667752  0.079294089   0.22048105  0.046754781  0.046452425  0.054552945   0.14776015 
  992000   -1790460.1     15005.49   -2614.4986    77.232592    89.181209    81.486324     1992.098  0.070146141  0.072425534  0.080121433   0.22269311  0.046645309  0.047037547  0.054937929   0.14862079 
  993000   -1790475.6    15033.148   -2376.8445    77.232592    89.181209    81.486324    1995.7699  0.070507733  0.071159552  0.079884139   0.22155142   0.04580159  0.045946014  0.054894171   0.14664177 
  994000   -1790410.8    15060.792   -1948.1831    77.232592    89.181209    81.486324    1999.4399  0.070136935  0.071538689  0.079861936   0.22153756  0.045640675   0.04606854  0.055324587    0.1470338 
  995000   -1790490.8    15106.607   -2876.1571    77.232592    89.181209    81.486324    2005.5221  0.069069734  0.073323265  0.078817295   0.22121029  0.045828911  0.047986056  0.053630007   0.14744497 
  996000   -1790458.8    15038.534   -2428.9043    77.232592    89.181209    81.486324     1996.485  0.071171853  0.071626104  0.078312886   0.22111084  0.046811551  0.046188714  0.054150254   0.14715052 
  997000   -1790557.1    15072.471   -2986.9647    77.232592    89.181209    81.486324    2000.9904  0.069188246  0.073341018  0.079012937    0.2215422  0.045104891  0.047885532  0.055046279    0.1480367 
  998000   -1790482.3    15090.953   -2664.4995    77.232592    89.181209    81.486324    2003.4439  0.070212706  0.071125865  0.079012144   0.22035072  0.046097101  0.045371047  0.053968123   0.14543627 
  999000   -1790539.3    15036.554   -3432.5937    77.232592    89.181209    81.486324     1996.222  0.069363026  0.072044144   0.07927909   0.22068626  0.046345123  0.047523614  0.054915041   0.14878378 
 1000000   -1790482.7    15077.472   -3002.4904    77.232592    89.181209    81.486324    2001.6542  0.070911948  0.072187154  0.079546186   0.22264529  0.047499966   0.04751475  0.054624602   0.14963932 
Loop time of 222495 on 7 procs for 1000000 steps with 58275 atoms

Pair  time (%) = 177608 (79.8254)
Kspce time (%) = 38581.7 (17.3404)
Neigh time (%) = 4553.6 (2.04661)
Comm  time (%) = 1255.63 (0.564341)
Outpt time (%) = 0.425423 (0.000191205)
Other time (%) = 496.148 (0.222992)

Nlocal:    8325 ave 8421 max 8177 min
Histogram: 1 1 1 0 0 0 0 0 0 4
Nghost:    32330.7 ave 32724 max 32036 min
Histogram: 3 1 0 0 0 0 0 0 2 1
Neighs:    3.16332e+06 ave 3.20196e+06 max 3.10198e+06 min
Histogram: 1 1 1 0 0 0 0 0 0 4

Total # of neighbors = 22143225
Ave neighs/atom = 379.978
Neighbor list builds = 35722
Dangerous builds = 0
