LAMMPS (28 Jun 2014)
Running on 21 partitions of processors
Step MaxReplicaForce MaxAtomForce GradV0 GradV1 GradVc EBF EBR RDT RD1 PE1 RD2 PE2 ... RDN PEN
0    79.155306    18.699603    79.155306    79.152061    79.094104    1.2865556     1.284169    2.8465084            0   -14778.347         0.05   -14779.043          0.1   -14779.447         0.15   -14779.576          0.2   -14779.445         0.25   -14779.088          0.3    -14778.57         0.35   -14777.989          0.4   -14777.469         0.45    -14777.13          0.5    -14777.06         0.55   -14777.283          0.6   -14777.756         0.65   -14778.377          0.7   -14779.022         0.75   -14779.567          0.8   -14779.912         0.85   -14779.989          0.9   -14779.761         0.95   -14779.213            1   -14778.344 
100   0.43324531   0.05093464   0.38996732   0.39594977   0.52725265    1.6414863    1.6447574    3.4085003            0   -14850.765  0.038390005   -14850.754  0.077502294   -14850.713   0.11838134   -14850.634    0.1628544   -14850.506   0.21120801   -14850.319   0.26265478   -14850.073   0.31616816   -14849.785   0.37114392   -14849.493   0.42726475   -14849.252   0.48406064   -14849.123   0.54081927   -14849.133   0.59728024   -14849.268   0.65299684   -14849.502   0.70745671   -14849.797   0.76060451   -14850.102   0.81248071   -14850.369   0.86195617   -14850.564   0.90856614   -14850.686   0.95449629   -14850.751            1   -14850.768 
200   0.43890904  0.035593006   0.41382242    0.4012537   0.50258933    1.6299865    1.6385165    3.5351286            0   -14850.772   0.04726223   -14850.758  0.094529344   -14850.702    0.1419366   -14850.597   0.18964472    -14850.44    0.2377557   -14850.233   0.28635494   -14849.983   0.33546486   -14849.712   0.38511745   -14849.451   0.43525734   -14849.246   0.48583081   -14849.142   0.53674267   -14849.154   0.58791449   -14849.273   0.63923627   -14849.482   0.69062625   -14849.757   0.74205055   -14850.059    0.7935028   -14850.337    0.8450033   -14850.554   0.89657642   -14850.695    0.9482546   -14850.765            1    -14850.78 
300  0.067570853 0.0060484933 0.0055572013  0.020556467   0.19698827    1.6309798    1.6394327    3.6151347            0   -14850.774  0.049739896   -14850.762  0.099316589    -14850.71   0.14869642   -14850.603   0.19787678   -14850.441   0.24693019   -14850.226   0.29601402   -14849.969   0.34513951   -14849.692   0.39429328   -14849.433   0.44354393   -14849.236   0.49296232   -14849.143   0.54258186   -14849.166    0.5924279   -14849.292   0.64251542   -14849.506   0.69285625   -14849.782   0.74346389   -14850.084   0.79432458    -14850.36   0.84543714   -14850.571    0.8967975   -14850.706   0.94835587    -14850.77            1   -14850.782 
400  0.029390852  0.005213338 0.0021671201   0.01289589   0.17168222    1.6308426    1.6398252    3.6454031            0   -14850.774  0.050075472   -14850.764   0.10002119   -14850.715   0.14977246    -14850.61   0.19936474   -14850.448   0.24885255   -14850.232   0.29828052   -14849.972   0.34768868   -14849.692   0.39709091   -14849.429   0.44651935   -14849.233   0.49602372   -14849.143   0.54564519    -14849.17   0.59541573   -14849.301   0.64535483    -14849.52   0.69547878   -14849.799   0.74579705   -14850.101   0.79630891   -14850.374    0.8470136   -14850.581   0.89789415   -14850.711    0.9489194   -14850.771            1   -14850.783 
500  0.018465213  0.002444559 0.00032104595 0.0051733298   0.14805728    1.6309414    1.6400408    3.6820984            0   -14850.774  0.050243386   -14850.765   0.10043545    -14850.72   0.15052579    -14850.62    0.2005104   -14850.461   0.25042752   -14850.244   0.30031356   -14849.981   0.35014307   -14849.696   0.39991718   -14849.429   0.44967092   -14849.232   0.49943799   -14849.143   0.54923526   -14849.175    0.5990712   -14849.312   0.64895548   -14849.536   0.69890234    -14849.82   0.74892119   -14850.122   0.79901285   -14850.392    0.8491777   -14850.592   0.89940893   -14850.716   0.94969541   -14850.772            1   -14850.783 
600  0.097375297 0.0071266791 0.00010778887 0.0028332652   0.14527951    1.6308579    1.6401547    3.6926105            0   -14850.774  0.050213743   -14850.765   0.10039746   -14850.722   0.15052275   -14850.624    0.2005938   -14850.465   0.25060637   -14850.249   0.30058339   -14849.985    0.3505126     -14849.7   0.40041069   -14849.431   0.45028979   -14849.232   0.50016115   -14849.143   0.55003429   -14849.176   0.59991908   -14849.314    0.6498233   -14849.539   0.69975385   -14849.825   0.74971611   -14850.127   0.79971262   -14850.396    0.8497439   -14850.595   0.89980917   -14850.717   0.94990174   -14850.772            1   -14850.783 
700  0.011531742 0.0011542569 0.00012886358 0.0017950591   0.14562069    1.6307706    1.6399768    3.6975143            0   -14850.774  0.050183441   -14850.765   0.10034549   -14850.723   0.15046991   -14850.625     0.200554   -14850.467   0.25059843   -14850.252   0.30060697   -14849.988   0.35058416   -14849.702   0.40053538   -14849.432   0.45046692   -14849.232   0.50038586   -14849.143   0.55029909   -14849.176    0.6002134   -14849.315   0.65013419    -14849.54   0.70006598   -14849.826   0.75001255   -14850.129   0.79997664   -14850.398   0.84996004   -14850.596   0.89996231   -14850.718   0.94997986   -14850.773            1   -14850.783 
800  0.006738116 0.00067804868 4.5350153e-05 0.0010184128   0.14718316    1.6307757    1.6399125    3.7013703            0   -14850.774   0.05014465   -14850.766   0.10027644   -14850.724     0.150385   -14850.627   0.20046724   -14850.469   0.25052252   -14850.254   0.30055259   -14849.991   0.35055977   -14849.704   0.40054677   -14849.434   0.45051638   -14849.233   0.50047231   -14849.143   0.55041864   -14849.176   0.60035965   -14849.315   0.65029879   -14849.541   0.70023893   -14849.827   0.75018262    -14850.13   0.80013236   -14850.399   0.85008972   -14850.597   0.90005537   -14850.718   0.95002764   -14850.773            1   -14850.783 
900 0.0053890197 0.00047682475 8.3221256e-05 0.00051390685   0.14963497    1.6306336    1.6397855    3.7039264            0   -14850.774  0.050103601   -14850.766   0.10019994   -14850.724   0.15028285   -14850.628   0.20035028   -14850.471   0.25040149   -14850.256    0.3004366   -14849.993   0.35045613   -14849.706   0.40046111   -14849.435   0.45045278   -14849.234   0.50043273   -14849.143   0.55040299   -14849.176   0.60036587   -14849.315   0.65032335   -14849.541   0.70027719   -14849.827   0.75022915    -14850.13   0.80018089   -14850.399   0.85013357   -14850.597   0.90008817   -14850.718    0.9500445   -14850.773            1   -14850.783 
959 0.00093289913 0.00028513641 7.3298632e-05 0.00040635542   0.15065125    1.6306718    1.6398521    3.7045634            0   -14850.774  0.050088648   -14850.766   0.10017144   -14850.724   0.15024363   -14850.628   0.20030349   -14850.472   0.25035029   -14850.257   0.30038387   -14849.994   0.35040441   -14849.707   0.40041245   -14849.436   0.45040881   -14849.234   0.50039466   -14849.143    0.5503715   -14849.176   0.60034109   -14849.314   0.65030501   -14849.541   0.70026473   -14849.827   0.75022167    -14850.13   0.80017715   -14850.399   0.85013233   -14850.597   0.90008806   -14850.718    0.9500445   -14850.773            1   -14850.783 
Climbing replica = 11
Step MaxReplicaForce MaxAtomForce GradV0 GradV1 GradVc EBF EBR RDT RD1 PE1 RD2 PE2 ... RDN PEN
959   0.15065125   0.10495985 7.3298632e-05 0.00040635542   0.15065125    1.6306718    1.6398521    3.7045634            0   -14850.774  0.050088648   -14850.766   0.10017144   -14850.724   0.15024363   -14850.628   0.20030349   -14850.472   0.25035029   -14850.257   0.30038387   -14849.994   0.35040441   -14849.707   0.40041245   -14849.436   0.45040881   -14849.234   0.50039466   -14849.143    0.5503715   -14849.176   0.60034109   -14849.314   0.65030501   -14849.541   0.70026473   -14849.827   0.75022167    -14850.13   0.80017715   -14850.399   0.85013233   -14850.597   0.90008806   -14850.718    0.9500445   -14850.773            1   -14850.783 
1059  0.012497818  0.003567342 3.7425433e-05 0.00019858985 0.0070187753    1.6334346    1.6426008    3.7058169            0   -14850.774  0.050644725   -14850.765   0.10137715   -14850.722   0.15226089   -14850.622   0.20332974   -14850.459   0.25457399   -14850.234   0.30593211    -14849.96   0.35732707   -14849.665   0.40871465   -14849.394   0.46006213   -14849.206   0.51137082    -14849.14   0.56011674   -14849.196    0.6088234   -14849.349   0.65747212   -14849.581   0.70609034   -14849.865   0.75472094   -14850.159    0.8034438   -14850.416   0.85232969   -14850.605   0.90140953   -14850.721   0.95065344   -14850.773            1   -14850.783 
1159 0.0079655589 0.00071839885 8.0084431e-05 0.00019505003 0.00073799294    1.6334747    1.6426134    3.7061694            0   -14850.774  0.051090473   -14850.765    0.1021809   -14850.721   0.15327583    -14850.62    0.2043806   -14850.455   0.25550032    -14850.23   0.30663667   -14849.957   0.35779295   -14849.663   0.40896443   -14849.393   0.46015055   -14849.206   0.51134423    -14849.14   0.56015886   -14849.195   0.60897944   -14849.349    0.6578124   -14849.582   0.70665636   -14849.868   0.75551906   -14850.163   0.80439459    -14850.42   0.85328507   -14850.608   0.90218617   -14850.722   0.95109347   -14850.773            1   -14850.783 
1193 0.00093784005  0.000260264 3.3319732e-05 0.00011663124 0.00063835434    1.6333641    1.6425512    3.7063311            0   -14850.774  0.051110112   -14850.765   0.10221881   -14850.721   0.15332909    -14850.62   0.20444507   -14850.455   0.25557044    -14850.23   0.30670748   -14849.957   0.35785691   -14849.663   0.40901816   -14849.393   0.46018869   -14849.206   0.51136465    -14849.14   0.56019077   -14849.195   0.60902132   -14849.349    0.6578594   -14849.582   0.70670764   -14849.868   0.75556705   -14850.163   0.80443817    -14850.42   0.85331983   -14850.608   0.90220979   -14850.722   0.95110482   -14850.773            1   -14850.783 
