479
Atoms. Timestep: 0
1 1.314 19.0766 3.398
1 5.609 16.5976 3.398
1 9.903 14.1176 3.398
1 14.198 11.6386 3.398
1 1.314 4.2 3.398
1 5.609 1.721 3.398
1 9.903 19.0766 3.398
1 14.198 16.5976 3.398
1 1.314 9.159 3.398
1 5.609 6.68 3.398
1 9.903 4.2 3.398
1 14.198 1.721 3.398
1 1.314 14.118 3.398
1 5.609 11.639 3.398
1 9.903 9.159 3.398
1 14.198 6.68 3.398
1 0 1.517 3.398
1 4.295 18.8736 3.398
1 8.589 16.3946 3.398
1 12.884 13.9146 3.398
1 0 6.476 3.398
1 4.295 3.997 3.398
1 8.589 1.517 3.398
1 12.884 18.8736 3.398
1 0 11.435 3.398
1 4.295 8.956 3.398
1 8.589 6.476 3.398
1 12.884 3.997 3.398
1 0 16.394 3.398
1 4.295 13.915 3.398
1 8.589 11.435 3.398
1 12.884 8.956 3.398
1 2.98 1.721 3.398
1 7.275 19.0766 3.398
1 11.569 16.5976 3.398
1 15.864 14.1176 3.398
1 2.98 6.68 3.398
1 7.275 4.2 3.398
1 11.569 1.721 3.398
1 15.864 19.0766 3.398
1 2.98 11.639 3.398
1 7.275 9.159 3.398
1 11.569 6.68 3.398
1 15.864 4.2 3.398
1 2.98 16.597 3.398
1 7.275 14.118 3.398
1 11.569 11.639 3.398
1 15.864 9.159 3.398
1 2.98 18.1146 10.195
1 7.275 15.6356 10.195
1 11.569 13.1556 10.195
1 15.864 10.6766 10.195
1 2.9026 3.27595 10.3083
1 7.275 0.759 10.195
1 11.569 18.1146 10.195
1 15.864 15.6356 10.195
1 2.98 8.197 10.195
1 7.275 5.718 10.195
1 11.569 3.238 10.195
1 15.864 0.759 10.195
1 2.98 13.156 10.195
1 7.275 10.677 10.195
1 11.569 8.197 10.195
1 15.864 5.718 10.195
1 0 3.441 10.195
1 4.295 0.962 10.195
1 8.589 18.3186 10.195
1 12.884 15.8386 10.195
1 0 8.4 10.195
1 4.295 5.921 10.195
1 8.589 3.441 10.195
1 12.884 0.962 10.195
1 0 13.359 10.195
1 4.295 10.88 10.195
1 8.589 8.4 10.195
1 12.884 5.921 10.195
1 0 18.318 10.195
1 4.295 15.839 10.195
1 8.589 13.359 10.195
1 12.884 10.88 10.195
1 1.314 0.759 10.195
1 5.609 18.1146 10.195
1 9.903 15.6356 10.195
1 14.198 13.1556 10.195
1 1.314 5.718 10.195
1 5.609 3.238 10.195
1 9.903 0.759 10.195
1 14.198 18.1146 10.195
1 1.314 10.677 10.195
1 5.609 8.197 10.195
1 9.903 5.718 10.195
1 14.198 3.238 10.195
1 1.314 15.635 10.195
1 5.609 13.156 10.195
1 9.903 10.677 10.195
1 14.198 8.197 10.195
1 4.177 19.0766 7.929
1 8.472 16.5976 7.929
1 12.766 14.1176 7.929
1 17.061 11.6386 7.929
1 4.177 4.2 7.929
1 8.472 1.721 7.929
1 12.766 19.0766 7.929
1 17.061 16.5976 7.929
1 4.177 9.159 7.929
1 8.472 6.68 7.929
1 12.766 4.2 7.929
1 17.061 1.721 7.929
1 4.177 14.118 7.929
1 8.472 11.639 7.929
1 12.766 9.159 7.929
1 17.061 6.68 7.929
1 2.863 1.517 7.929
1 7.158 18.8736 7.929
1 11.452 16.3946 7.929
1 15.747 13.9146 7.929
1 2.863 6.476 7.929
1 7.158 3.997 7.929
1 11.452 1.517 7.929
1 15.747 18.8736 7.929
1 2.863 11.435 7.929
1 7.158 8.956 7.929
1 11.452 6.476 7.929
1 15.747 3.997 7.929
1 2.863 16.394 7.929
1 7.158 13.915 7.929
1 11.452 11.435 7.929
1 15.747 8.956 7.929
1 1.549 19.0766 7.929
1 5.843 16.5976 7.929
1 10.138 14.1176 7.929
1 14.432 11.6386 7.929
1 1.549 4.2 7.929
1 5.843 1.721 7.929
1 10.138 19.0766 7.929
1 14.432 16.5976 7.929
1 1.549 9.159 7.929
1 5.843 6.68 7.929
1 10.138 4.2 7.929
1 14.432 1.721 7.929
1 1.549 14.118 7.929
1 5.843 11.639 7.929
1 10.138 9.159 7.929
1 14.432 6.68 7.929
1 1.549 0.759 1.133
1 5.843 18.1146 1.133
1 10.138 15.6356 1.133
1 14.432 13.1556 1.133
1 1.549 5.718 1.133
1 5.843 3.238 1.133
1 10.138 0.759 1.133
1 14.432 18.1146 1.133
1 1.549 10.677 1.133
1 5.843 8.197 1.133
1 10.138 5.718 1.133
1 14.432 3.238 1.133
1 1.549 15.635 1.133
1 5.843 13.156 1.133
1 10.138 10.677 1.133
1 14.432 8.197 1.133
1 2.863 18.3186 1.133
1 7.158 15.8386 1.133
1 11.452 13.3596 1.133
1 15.747 10.8796 1.133
1 2.863 3.441 1.133
1 7.158 0.962 1.133
1 11.452 18.3186 1.133
1 15.747 15.8386 1.133
1 2.863 8.4 1.133
1 7.158 5.921 1.133
1 11.452 3.441 1.133
1 15.747 0.962 1.133
1 2.863 13.359 1.133
1 7.158 10.88 1.133
1 11.452 8.4 1.133
1 15.747 5.921 1.133
1 4.177 0.759 1.133
1 8.472 18.1146 1.133
1 12.766 15.6356 1.133
1 17.061 13.1556 1.133
1 4.177 5.718 1.133
1 8.472 3.238 1.133
1 12.766 0.759 1.133
1 17.061 18.1146 1.133
1 4.177 10.677 1.133
1 8.472 8.197 1.133
1 12.766 5.718 1.133
1 17.061 3.238 1.133
1 4.177 15.635 1.133
1 8.472 13.156 1.133
1 12.766 10.677 1.133
1 17.061 8.197 1.133
1 2.746 1.721 12.46
1 7.04 19.0766 12.46
1 11.335 16.5976 12.46
1 15.629 14.1176 12.46
1 2.746 6.68 12.46
1 7.04 4.2 12.46
1 11.335 1.721 12.46
1 15.629 19.0766 12.46
1 2.746 11.639 12.46
1 7.04 9.159 12.46
1 11.335 6.68 12.46
1 15.629 4.2 12.46
1 2.746 16.597 12.46
1 7.04 14.118 12.46
1 11.335 11.639 12.46
1 15.629 9.159 12.46
1 5.726 1.517 12.46
1 10.021 18.8736 12.46
1 14.315 16.3946 12.46
1 1.432 8.956 12.46
1 5.726 6.476 12.46
1 10.021 3.997 12.46
1 14.315 1.517 12.46
1 1.432 13.915 12.46
1 5.726 11.435 12.46
1 10.021 8.956 12.46
1 14.315 6.476 12.46
1 1.432 18.874 12.46
1 5.726 16.394 12.46
1 10.021 13.915 12.46
1 14.315 11.435 12.46
1 0.117 1.721 12.46
1 4.412 19.0766 12.46
1 8.706 16.5976 12.46
1 13.001 14.1176 12.46
1 0.117 6.68 12.46
1 4.412 4.2 12.46
1 8.706 1.721 12.46
1 13.001 19.0766 12.46
1 0.117 11.639 12.46
1 4.412 9.159 12.46
1 8.706 6.68 12.46
1 13.001 4.2 12.46
1 0.117 16.597 12.46
1 4.412 14.118 12.46
1 8.706 11.639 12.46
1 13.001 9.159 12.46
1 0.117 3.238 5.664
1 4.412 0.759 5.664
1 8.706 18.1146 5.664
1 13.001 15.6356 5.664
1 0.117 8.197 5.664
1 4.412 5.718 5.664
1 8.706 3.238 5.664
1 13.001 0.759 5.664
1 0.117 13.156 5.664
1 4.412 10.677 5.664
1 8.706 8.197 5.664
1 13.001 5.718 5.664
1 0.117 18.115 5.664
1 4.412 15.635 5.664
1 8.706 13.156 5.664
1 13.001 10.677 5.664
1 1.432 0.962 5.664
1 5.726 18.3186 5.664
1 10.021 15.8386 5.664
1 14.315 13.3596 5.664
1 1.432 5.921 5.664
1 5.726 3.441 5.664
1 10.021 0.962 5.664
1 14.315 18.3186 5.664
1 1.432 10.88 5.664
1 5.726 8.4 5.664
1 10.021 5.921 5.664
1 14.315 3.441 5.664
1 1.432 15.839 5.664
1 5.726 13.359 5.664
1 10.021 10.88 5.664
1 14.315 8.4 5.664
1 2.746 3.238 5.664
1 7.04 0.759 5.664
1 11.335 18.1146 5.664
1 15.629 15.6356 5.664
1 2.746 8.197 5.664
1 7.04 5.718 5.664
1 11.335 3.238 5.664
1 15.629 0.759 5.664
1 2.746 13.156 5.664
1 7.04 10.677 5.664
1 11.335 8.197 5.664
1 15.629 5.718 5.664
1 2.746 18.115 5.664
1 7.04 15.635 5.664
1 11.335 13.156 5.664
1 15.629 10.677 5.664
2 0 0 4.724
2 4.295 17.3566 4.724
2 8.589 14.8766 4.724
2 12.884 12.3976 4.724
2 0 4.959 4.724
2 4.295 2.479 4.724
2 8.589 0 4.724
2 12.884 17.3566 4.724
2 0 9.918 4.724
2 4.295 7.438 4.724
2 8.589 4.959 4.724
2 12.884 2.479 4.724
2 0 14.877 4.724
2 4.295 12.397 4.724
2 8.589 9.918 4.724
2 12.884 7.438 4.724
2 0 0 2.073
2 4.295 17.3566 2.073
2 8.589 14.8766 2.073
2 12.884 12.3976 2.073
2 0 4.959 2.073
2 4.295 2.479 2.073
2 8.589 0 2.073
2 12.884 17.3566 2.073
2 0 9.918 2.073
2 4.295 7.438 2.073
2 8.589 4.959 2.073
2 12.884 2.479 2.073
2 0 14.877 2.073
2 4.295 12.397 2.073
2 8.589 9.918 2.073
2 12.884 7.438 2.073
2 0 0 8.869
2 4.295 17.3566 8.869
2 8.589 14.8766 8.869
2 12.884 12.3976 8.869
2 0 4.959 8.869
2 4.295 2.479 8.869
2 8.589 0 8.869
2 12.884 17.3566 8.869
2 0 9.918 8.869
2 4.295 7.438 8.869
2 8.589 4.959 8.869
2 12.884 2.479 8.869
2 0 14.877 8.869
2 4.295 12.397 8.869
2 8.589 9.918 8.869
2 12.884 7.438 8.869
2 0 0 11.52
2 4.295 17.3566 11.52
2 8.589 14.8766 11.52
2 12.884 12.3976 11.52
2 0 4.959 11.52
2 4.295 2.479 11.52
2 8.589 0 11.52
2 12.884 17.3566 11.52
2 0 9.918 11.52
2 4.295 7.438 11.52
2 8.589 4.959 11.52
2 12.884 2.479 11.52
2 0 14.877 11.52
2 4.295 12.397 11.52
2 8.589 9.918 11.52
2 12.884 7.438 11.52
2 2.863 0 9.255
2 7.158 17.3566 9.255
2 11.452 14.8766 9.255
2 15.747 12.3976 9.255
2 2.863 4.959 9.255
2 7.158 2.479 9.255
2 11.452 0 9.255
2 15.747 17.3566 9.255
2 2.863 9.918 9.255
2 7.158 7.438 9.255
2 11.452 4.959 9.255
2 15.747 2.479 9.255
2 2.863 14.877 9.255
2 7.158 12.397 9.255
2 11.452 9.918 9.255
2 15.747 7.438 9.255
2 2.863 0 6.604
2 7.158 17.3566 6.604
2 11.452 14.8766 6.604
2 15.747 12.3976 6.604
2 2.863 4.959 6.604
2 7.158 2.479 6.604
2 11.452 0 6.604
2 15.747 17.3566 6.604
2 2.863 9.918 6.604
2 7.158 7.438 6.604
2 11.452 4.959 6.604
2 15.747 2.479 6.604
2 2.863 14.877 6.604
2 7.158 12.397 6.604
2 11.452 9.918 6.604
2 15.747 7.438 6.604
2 2.863 0 13.401
2 7.158 17.3566 13.401
2 11.452 14.8766 13.401
2 15.747 12.3976 13.401
2 2.863 4.959 13.401
2 7.158 2.479 13.401
2 11.452 0 13.401
2 15.747 17.3566 13.401
2 2.863 9.918 13.401
2 7.158 7.438 13.401
2 11.452 4.959 13.401
2 15.747 2.479 13.401
2 2.863 14.877 13.401
2 7.158 12.397 13.401
2 11.452 9.918 13.401
2 15.747 7.438 13.401
2 2.863 0 2.458
2 7.158 17.3566 2.458
2 11.452 14.8766 2.458
2 15.747 12.3976 2.458
2 2.863 4.959 2.458
2 7.158 2.479 2.458
2 11.452 0 2.458
2 15.747 17.3566 2.458
2 2.863 9.918 2.458
2 7.158 7.438 2.458
2 11.452 4.959 2.458
2 15.747 2.479 2.458
2 2.863 14.877 2.458
2 7.158 12.397 2.458
2 11.452 9.918 2.458
2 15.747 7.438 2.458
2 1.432 2.479 0.193
2 5.726 0 0.193
2 10.021 17.3566 0.193
2 14.315 14.8766 0.193
2 1.432 7.438 0.193
2 5.726 4.959 0.193
2 10.021 2.479 0.193
2 14.315 0 0.193
2 1.432 12.397 0.193
2 5.726 9.918 0.193
2 10.021 7.438 0.193
2 14.315 4.959 0.193
2 1.432 17.356 0.193
2 5.726 14.877 0.193
2 10.021 12.397 0.193
2 14.315 9.918 0.193
2 1.432 2.479 11.135
2 5.726 0 11.135
2 10.021 17.3566 11.135
2 14.315 14.8766 11.135
2 1.432 7.438 11.135
2 5.726 4.959 11.135
2 10.021 2.479 11.135
2 14.315 0 11.135
2 1.432 12.397 11.135
2 5.726 9.918 11.135
2 10.021 7.438 11.135
2 14.315 4.959 11.135
2 1.432 17.356 11.135
2 5.726 14.877 11.135
2 10.021 12.397 11.135
2 14.315 9.918 11.135
2 1.432 2.479 4.338
2 5.726 0 4.338
2 10.021 17.3566 4.338
2 14.315 14.8766 4.338
2 1.432 7.438 4.338
2 5.726 4.959 4.338
2 10.021 2.479 4.338
2 14.315 0 4.338
2 1.432 12.397 4.338
2 5.726 9.918 4.338
2 10.021 7.438 4.338
2 14.315 4.959 4.338
2 1.432 17.356 4.338
2 5.726 14.877 4.338
2 10.021 12.397 4.338
2 14.315 9.918 4.338
2 1.432 2.479 6.989
2 5.726 0 6.989
2 10.021 17.3566 6.989
2 14.315 14.8766 6.989
2 1.432 7.438 6.989
2 5.726 4.959 6.989
2 10.021 2.479 6.989
2 14.315 0 6.989
2 1.432 12.397 6.989
2 5.726 9.918 6.989
2 10.021 7.438 6.989
2 14.315 4.959 6.989
2 1.432 17.356 6.989
2 5.726 14.877 6.989
2 10.021 12.397 6.989
2 14.315 9.918 6479479
Atoms. Timestep: 959
1 1.30117 19.0653 3.46686
1 5.59427 16.609 3.40527
1 9.88692 14.1263 3.39684
1 14.1796 11.6358 3.39033
1 1.32352 4.18906 3.35882
1 5.59646 1.72477 3.41497
1 9.89783 19.0892 3.40438
1 14.1835 16.5988 3.41862
1 1.30313 9.16008 3.36531
1 5.58139 6.67649 3.39387
1 9.8918 4.20749 3.3922
1 14.1999 1.72304 3.40536
1 1.29665 14.1208 3.39903
1 5.58847 11.6458 3.3814
1 9.87912 9.16231 3.38545
1 14.1905 6.67679 3.37581
1 0.0188725 1.50407 3.4254
1 4.29861 18.8583 3.43143
1 8.59513 16.3746 3.40468
1 12.8822 13.8868 3.40139
1 0.0304262 6.43447 3.35805
1 4.30235 3.96089 3.38209
1 8.60516 1.49764 3.41624
1 12.8949 18.8542 3.41131
1 -0.00121598 11.4043 3.39136
1 4.28401 8.91967 3.38029
1 8.58353 6.44762 3.39216
1 12.9032 3.97191 3.37777
1 -0.00302857 16.3651 3.42601
1 4.29385 13.8943 3.40026
1 8.58302 11.4101 3.39188
1 12.882 8.92454 3.37859
1 2.99824 1.7317 3.41239
1 7.30179 19.082 3.40342
1 11.5925 16.6081 3.40153
1 15.8813 14.1194 3.40223
1 2.97948 6.66618 3.34222
1 7.28973 4.19652 3.42066
1 11.6035 1.73265 3.41213
1 15.8947 19.0815 3.41511
1 2.99527 11.6464 3.38154
1 7.28047 9.16268 3.38642
1 11.589 6.6814 3.39383
1 15.9092 4.18803 3.38292
1 3.00316 16.6047 3.40721
1 7.29301 14.1284 3.39225
1 11.583 11.642 3.3931
1 15.8864 9.1519 3.37311
1 2.99846 18.1382 10.2135
1 7.28857 15.6401 10.1962
1 11.5826 13.1508 10.1961
1 15.8704 10.6828 10.1902
1 2.12043 3.88145 11.6363
1 7.24932 0.780458 10.2199
1 11.594 18.1125 10.2076
1 15.8867 15.6313 10.2129
1 2.99106 8.19109 10.1449
1 7.26663 5.69586 10.1772
1 11.5811 3.23322 10.1919
1 15.9082 0.766921 10.2445
1 2.9997 13.1534 10.1901
1 7.2829 10.6674 10.1796
1 11.57 8.19408 10.1823
1 15.8207 5.721 10.1421
1 -0.0552696 3.4818 10.233
1 4.16105 1.16191 10.2887
1 8.58701 18.3572 10.2053
1 12.8909 15.8681 10.1996
1 -0.0306153 8.44721 10.1583
1 4.23079 5.90908 10.2274
1 8.57477 3.45627 10.2074
1 12.8903 0.98944 10.2135
1 0.00276661 13.3868 10.1895
1 4.29134 10.9023 10.176
1 8.57475 8.41565 10.1862
1 12.8455 5.94501 10.1768
1 0.0141152 18.359 10.2241
1 4.30033 15.8835 10.2048
1 8.58609 13.3874 10.1904
1 12.8745 10.9046 10.1827
1 1.30011 0.800862 10.2318
1 5.58392 18.1473 10.1935
1 9.88821 15.6323 10.1958
1 14.1773 13.1513 10.1962
1 1.18664 5.82059 10.1181
1 5.45097 3.24251 10.1514
1 9.87792 0.753927 10.1985
1 14.1991 18.1158 10.2142
1 1.29086 10.6718 10.1813
1 5.5689 8.17804 10.1743
1 9.8605 5.70777 10.1864
1 14.1658 3.24176 10.1872
1 1.30709 15.633 10.2031
1 5.59104 13.1509 10.1867
1 9.87401 10.6675 10.1876
1 14.1568 8.19795 10.177
1 4.16199 19.1499 7.9658
1 8.45756 16.6112 7.92782
1 12.7494 14.1278 7.93228
1 17.0407 11.6514 7.91615
1 4.11901 4.19779 8.00294
1 8.46314 1.73377 7.94353
1 12.7583 19.0918 7.94494
1 17.0492 16.6199 7.95948
1 4.15724 9.1866 7.89459
1 8.43105 6.6847 7.91915
1 12.7358 4.21018 7.91805
1 17.0534 1.75144 7.96823
1 4.15833 14.1438 7.93158
1 8.44663 11.6526 7.92148
1 12.7346 9.16528 7.90953
1 17.0214 6.68788 7.85448
1 2.87437 1.6119 8.06812
1 7.17537 18.8561 7.9373
1 11.4582 16.3781 7.93956
1 15.7453 13.899 7.93994
1 2.84624 6.46806 7.9386
1 7.12395 3.96104 7.95981
1 11.4575 1.50078 7.93764
1 15.7541 18.8731 7.95857
1 2.85721 11.4237 7.92355
1 7.14119 8.93227 7.91831
1 11.4294 6.45275 7.91252
1 15.7404 3.98791 7.88987
1 2.86342 16.4022 7.95266
1 7.1546 13.9061 7.92868
1 11.4429 11.4135 7.92701
1 15.7326 8.93759 7.91111
1 1.5854 19.1311 7.94958
1 5.85799 16.6293 7.93455
1 10.1555 14.131 7.92534
1 14.4451 11.6494 7.91806
1 1.58155 4.20225 8.06362
1 5.89492 1.70087 7.92557
1 10.1661 19.0872 7.93877
1 14.4592 16.6156 7.93734
1 1.5569 9.17703 7.90062
1 5.83174 6.68896 7.92932
1 10.1384 4.20786 7.93511
1 14.4598 1.73652 7.95591
1 1.5695 14.1408 7.92427
1 5.8556 11.6598 7.91224
1 10.1387 9.16642 7.91764
1 14.4296 6.69396 7.9037
1 1.56592 0.669518 1.24221
1 5.86476 18.1049 1.15059
1 10.1582 15.6267 1.13467
1 14.4487 13.1363 1.13262
1 1.56036 5.61416 0.974651
1 5.88217 3.211 1.14536
1 10.1767 0.753031 1.14573
1 14.4597 18.1037 1.15395
1 1.56638 10.653 1.10565
1 5.85453 8.17464 1.11357
1 10.1641 5.70618 1.12708
1 14.5004 3.23418 1.12151
1 1.56555 15.6139 1.14541
1 5.85949 13.1421 1.12336
1 10.1503 10.6634 1.12272
1 14.4558 8.17868 1.10704
1 2.88432 18.3116 1.13016
1 7.16267 15.8603 1.13254
1 11.4517 13.3784 1.13048
1 15.7475 10.8868 1.11829
1 2.87074 3.40621 1.07602
1 7.18108 0.977542 1.16122
1 11.4657 18.3452 1.13775
1 15.7435 15.8488 1.14783
1 2.85537 8.38825 1.09172
1 7.1626 5.92719 1.13601
1 11.4753 3.46326 1.13027
1 15.7837 0.98775 1.16422
1 2.86544 13.372 1.12434
1 7.15254 10.8931 1.11919
1 11.4485 8.41615 1.1214
1 15.7528 5.93193 1.12136
1 4.17669 0.737042 1.15176
1 8.46472 18.1049 1.13735
1 12.7526 15.6244 1.14349
1 17.0428 13.1371 1.13442
1 4.16142 5.68366 1.10307
1 8.4715 3.22684 1.13898
1 12.7766 0.760037 1.14239
1 17.0477 18.0773 1.16984
1 4.15322 10.6513 1.1256
1 8.44678 8.18208 1.12207
1 12.759 5.71049 1.11393
1 17.1384 3.22446 1.0744
1 4.16514 15.6167 1.13367
1 8.45272 13.1432 1.12999
1 12.7439 10.6629 1.12703
1 17.0555 8.16014 1.09637
1 2.72049 1.66783 12.602
1 7.03098 19.0878 12.4778
1 11.3228 16.611 12.469
1 15.6102 14.1301 12.4668
1 2.72898 6.68533 12.4124
1 7.05803 4.19138 12.4564
1 11.3341 1.72989 12.4695
1 15.6285 19.0883 12.5003
1 2.72399 11.6494 12.4455
1 7.01085 9.16607 12.4423
1 11.3181 6.6888 12.4488
1 15.6925 4.23068 12.44
1 2.73095 16.6151 12.4631
1 7.0219 14.1315 12.4563
1 11.3113 11.6499 12.4547
1 15.608 9.17259 12.4434
1 5.74054 1.48033 12.5103
1 10.0315 18.8565 12.4696
1 14.3149 16.3775 12.4764
1 1.42046 8.92811 12.4087
1 5.72105 6.44847 12.4445
1 10.0387 3.97421 12.4577
1 14.3434 1.51058 12.4716
1 1.43251 13.9002 12.4607
1 5.71962 11.4146 12.4489
1 10.0128 8.93305 12.4503
1 14.3172 6.45058 12.4297
1 1.42349 18.8568 12.4897
1 5.73346 16.3828 12.4629
1 10.0181 13.8971 12.461
1 14.309 11.4163 12.4545
1 0.188668 1.81238 12.4912
1 4.44248 19.0931 12.447
1 8.73036 16.6108 12.4588
1 13.0173 14.1307 12.4636
1 0.121257 6.67413 12.4013
1 4.52989 4.15762 12.4853
1 8.73964 1.72388 12.4713
1 13.036 19.0975 12.4671
1 0.128247 11.6566 12.4519
1 4.41655 9.16857 12.4369
1 8.71803 6.68657 12.454
1 13.0472 4.21238 12.45
1 0.137054 16.6105 12.4789
1 4.43096 14.1331 12.4514
1 8.71661 11.6486 12.4501
1 13.0103 9.17333 12.4504
1 0.162071 3.2468 5.68479
1 4.41744 0.763952 5.70643
1 8.73293 18.1082 5.66849
1 13.0224 15.6222 5.67471
1 0.140529 8.17851 5.62396
1 4.42095 5.7009 5.67493
1 8.71794 3.23182 5.6737
1 13.0338 0.752192 5.67896
1 0.135186 13.1408 5.66632
1 4.42655 10.667 5.63923
1 8.71322 8.18498 5.65538
1 13.0143 5.70279 5.65534
1 0.144435 18.1079 5.71591
1 4.43188 15.6293 5.67448
1 8.72286 13.1475 5.65911
1 13.014 10.6592 5.65859
1 1.45621 0.989262 5.71864
1 5.73129 18.3484 5.68611
1 10.0277 15.8613 5.66561
1 14.3167 13.3738 5.65893
1 1.43366 5.90899 5.67831
1 5.70059 3.45159 5.70908
1 10.029 0.985706 5.67845
1 14.3287 18.3442 5.67612
1 1.43539 10.8927 5.63936
1 5.71884 8.41256 5.6484
1 10.0075 5.93735 5.65639
1 14.3181 3.45932 5.65181
1 1.43539 15.8609 5.66902
1 5.72688 13.3828 5.65321
1 10.0148 10.8961 5.65329
1 14.3119 8.41291 5.63288
1 2.73889 3.23086 5.70332
1 7.02841 0.743758 5.65901
1 11.3294 18.1069 5.67396
1 15.6179 15.6216 5.68201
1 2.72444 8.16971 5.63872
1 7.00768 5.69887 5.67055
1 11.3163 3.23299 5.65863
1 15.6369 0.759321 5.68742
1 2.72928 13.145 5.66239
1 7.01552 10.6649 5.65822
1 11.3072 8.18209 5.64854
1 15.6123 5.70682 5.62185
1 2.74645 18.1014 5.6974
1 7.02766 15.6284 5.66616
1 11.3175 13.1407 5.66434
1 15.6105 10.6574 5.64883
2 0.0178132 -0.0101258 4.91838
2 4.30549 17.3474 4.876
2 8.59697 14.8757 4.86358
2 12.8799 12.3877 4.86431
2 0.00637315 4.96571 4.83519
2 4.29906 2.47019 4.87562
2 8.61054 -0.00324828 4.87101
2 12.8908 17.3482 4.87782
2 -0.00320081 9.92062 4.83907
2 4.29977 7.43826 4.84372
2 8.58403 4.95982 4.86458
2 12.8868 2.47562 4.86768
2 -0.00482941 14.8649 4.87668
2 4.29423 12.4032 4.85389
2 8.58289 9.91985 4.85466
2 12.8739 7.43509 4.84888
2 -0.017431 -0.0610962 2.00238
2 4.30712 17.3318 1.94171
2 8.59516 14.8714 1.92949
2 12.8786 12.3915 1.93017
2 0.00977344 4.94361 1.89087
2 4.33678 2.4587 1.95518
2 8.61744 -0.00927259 1.94288
2 12.8847 17.3519 1.94145
2 0.0018309 9.90289 1.90195
2 4.2901 7.43217 1.90182
2 8.60635 4.96236 1.93292
2 12.9038 2.48715 1.93179
2 -0.00203278 14.8565 1.94207
2 4.29608 12.3925 1.91979
2 8.58416 9.91676 1.91892
2 12.8836 7.44342 1.91497
2 -0.00548892 0.00746395 8.7422
2 4.29602 17.3758 8.73805
2 8.59307 14.8803 8.72571
2 12.8776 12.3961 8.72349
2 -0.0560585 4.98889 8.62437
2 4.42202 2.46463 8.63321
2 8.60428 -0.00387137 8.73105
2 12.8887 17.3552 8.73707
2 -0.0115731 9.93123 8.70581
2 4.30859 7.50135 8.69172
2 8.5749 4.96616 8.72624
2 12.8686 2.489 8.73012
2 0.0035133 14.8744 8.73611
2 4.29784 12.4083 8.71683
2 8.57822 9.92209 8.71629
2 12.854 7.44254 8.70765
2 -0.015895 -0.0630351 11.6981
2 4.30868 17.3435 11.6652
2 8.59296 14.8782 11.6615
2 12.8758 12.4036 11.6603
2 -0.108647 5.07587 11.466
2 4.29574 2.4124 11.8749
2 8.60249 -0.00559763 11.6781
2 12.8882 17.3554 11.6744
2 -0.0283593 9.95162 11.6442
2 4.3019 7.45328 11.6402
2 8.60003 4.95867 11.666
2 12.89 2.46997 11.6712
2 -0.00442353 14.8763 11.672
2 4.29145 12.4016 11.6542
2 8.58396 9.92197 11.6523
2 12.8704 7.45901 11.6478
2 2.85534 0.0300625 9.4308
2 7.16001 17.3649 9.40211
2 11.4552 14.8789 9.39964
2 15.7386 12.4094 9.39273
2 2.76977 5.17184 9.383
2 7.18845 2.47848 9.41038
2 11.459 -0.000450987 9.40779
2 15.7517 17.353 9.41531
2 2.85337 9.94969 9.36802
2 7.15535 7.43947 9.39162
2 11.422 4.96138 9.37999
2 15.7123 2.48267 9.3912
2 2.86993 14.8845 9.39738
2 7.15857 12.4041 9.38686
2 11.439 9.92585 9.38632
2 15.7087 7.47456 9.35299
2 2.87682 -0.0236752 6.47561
2 7.18089 17.3432 6.46547
2 11.4543 14.8695 6.46457
2 15.7433 12.3885 6.45625
2 2.87334 4.96251 6.45316
2 7.17314 2.47139 6.45837
2 11.4616 -0.00261996 6.47214
2 15.7445 17.3471 6.48193
2 2.86444 9.92665 6.4325
2 7.15026 7.44766 6.44868
2 11.4358 4.9651 6.44744
2 15.7469 2.49402 6.45745
2 2.86536 14.8755 6.46252
2 7.15773 12.4071 6.45159
2 11.4416 9.91482 6.45012
2 15.7363 7.44157 6.41875
2 2.89073 -0.0915135 13.2989
2 7.17191 17.3458 13.2638
2 11.4502 14.8748 13.2611
2 15.74 12.3988 13.2584
2 2.94277 4.94658 13.1171
2 7.2006 2.4765 13.2835
2 11.466 -0.00472059 13.2701
2 15.7373 17.3363 13.2902
2 2.85102 9.91709 13.2381
2 7.15534 7.44265 13.2456
2 11.4605 4.96755 13.2547
2 15.7583 2.50826 13.2759
2 2.8699 14.8694 13.259
2 7.15629 12.3953 13.2498
2 11.4423 9.92223 13.2509
2 15.7417 7.45275 13.2421
2 2.86247 -0.0284902 2.65325
2 7.17073 17.3489 2.60645
2 11.4554 14.873 2.60369
2 15.7435 12.3844 2.5986
2 2.88042 4.93571 2.53229
2 7.18638 2.47271 2.61854
2 11.4721 0.0033601 2.61311
2 15.7401 17.3238 2.62915
2 2.86234 9.91939 2.5779
2 7.15487 7.43595 2.59057
2 11.4622 4.95913 2.59489
2 15.7568 2.45515 2.62596
2 2.86212 14.8663 2.60322
2 7.15811 12.3975 2.59164
2 11.4458 9.91573 2.59133
2 15.75 7.42585 2.5784
2 1.48568 2.31632 0.510373
2 5.76409 -0.0123406 0.377767
2 10.0324 17.3543 0.340128
2 14.3079 14.866 0.344423
2 1.43859 7.40486 0.287712
2 5.76156 4.94583 0.342968
2 10.0486 2.47844 0.345495
2 14.335 0.00165648 0.356277
2 1.42811 12.3973 0.327229
2 5.72091 9.91769 0.321619
2 10.0178 7.44059 0.326738
2 14.3248 4.97634 0.320048
2 1.41962 17.326 0.359939
2 5.73284 14.8716 0.333601
2 10.0186 12.3984 0.330611
2 14.3047 9.92373 0.32317
2 1.2497 2.41012 11.0768
2 5.73274 0.00386101 11.0346
2 10.0265 17.3551 10.9985
2 14.3141 14.8765 11.001
2 1.41111 7.52684 10.9651
2 5.72237 4.94548 10.9888
2 10.0279 2.48065 11.0042
2 14.3115 0.00155057 11.0113
2 1.4328 12.4073 10.9845
2 5.72204 9.93079 10.9785
2 10.0122 7.44507 10.9841
2 14.2428 4.97099 10.9616
2 1.44802 17.3414 11.0063
2 5.73431 14.8727 10.991
2 10.0162 12.3994 10.9878
2 14.2996 9.93074 10.979
2 1.44087 2.48529 4.22525
2 5.74965 -0.0101587 4.19732
2 10.0311 17.3513 4.20055
2 14.3111 14.8598 4.20629
2 1.44082 7.44225 4.15543
2 5.72477 4.95617 4.19398
2 10.0341 2.48353 4.20248
2 14.3219 -0.00995691 4.21566
2 1.43206 12.3898 4.18727
2 5.71944 9.91988 4.17421
2 10.0163 7.43876 4.18423
2 14.3238 4.95635 4.17408
2 1.43528 17.3265 4.22696
2 5.73304 14.8698 4.1966
2 10.0189 12.3933 4.19078
2 14.3136 9.90678 4.17748
2 1.44225 2.48063 7.16686
2 5.76083 -0.029333 7.1172
2 10.0344 17.3537 7.13715
2 14.3151 14.8729 7.14041
2 1.41584 7.46561 7.08754
2 5.72675 4.97332 7.14093
2 10.0277 2.47665 7.13804
2 14.3192 0.00300032 7.14879
2 1.42789 12.4054 7.12279
2 5.72987 9.93927 7.10481
2 10.0034 7.4426 7.11756
2 14.2817 4.96882 7.10223
2 1.42914 17.3575 7.15843
2 5.72607 14.8875 7.1479
Atoms. 479
Atoms. Timestep: 1193479479479
Atoms. Timestep: 1193
1 1.30476 19.0698 3.45621
1 5.59451 16.6097 3.40548
1 9.8872 14.1265 3.39626
1 14.1793 11.6358 3.39028
1 1.32376 4.1907 3.37143
1 5.59868 1.72452 3.41285
1 9.8981 19.0894 3.40408
1 14.1843 16.5992 3.4189
1 1.30148 9.1597 3.36202
1 5.5848 6.67922 3.38784
1 9.88838 4.20734 3.39221
1 14.1985 1.72541 3.40779
1 1.29698 14.1212 3.39935
1 5.58998 11.6475 3.37897
1 9.87828 9.16233 3.38514
1 14.1869 6.67712 3.37425
1 0.0211821 1.50069 3.42623
1 4.30086 18.8609 3.42585
1 8.59565 16.3749 3.40466
1 12.8825 13.8867 3.40162
1 0.0219233 6.43731 3.35706
1 4.30514 3.96151 3.39034
1 8.60636 1.49814 3.41875
1 12.8959 18.854 3.4122
1 17.1767 11.4049 3.39095
1 4.2872 8.92201 3.37878
1 8.58075 6.44644 3.39148
1 12.9006 3.97293 3.37908
1 17.1759 16.3665 3.42506
1 4.29411 13.8954 3.40022
1 8.58323 11.4105 3.39195
1 12.881 8.92464 3.37996
1 3.00645 1.72411 3.4171
1 7.30277 19.0811 3.40345
1 11.5929 16.6076 3.40125
1 15.8816 14.1198 3.40191
1 2.98668 6.667 3.34792
1 7.28614 4.19382 3.41695
1 11.6029 1.73218 3.41239
1 15.8965 19.0812 3.41711
1 2.99625 11.6472 3.38033
1 7.27998 9.1643 3.38444
1 11.5862 6.68135 3.39408
1 15.9065 4.19076 3.38801
1 3.00379 16.6067 3.40743
1 7.29362 14.1292 3.39132
1 11.5829 11.6416 3.39197
1 15.8854 9.15379 3.37358
1 3.00124 18.14 10.2162
1 7.28927 15.6373 10.1954
1 11.5827 13.1496 10.1954
1 15.8715 10.6801 10.1883
1 1.65752 3.96534 12.056
1 7.25127 0.776443 10.2174
1 11.5929 18.1124 10.2067
1 15.8869 15.6324 10.2131
1 2.99655 8.18962 10.1347
1 7.2635 5.69361 10.1797
1 11.5816 3.23327 10.1938
1 15.9053 0.760249 10.238
1 3.0001 13.1536 10.1905
1 7.28246 10.6652 10.1793
1 11.574 8.18906 10.1817
1 15.8701 5.7093 10.1454
1 17.1545 3.44759 10.1955
1 4.18183 1.15618 10.2921
1 8.58693 18.356 10.204
1 12.8905 15.8672 10.1995
1 17.1576 8.44243 10.1568
1 4.22418 5.89953 10.2027
1 8.57226 3.45599 10.2124
1 12.8892 0.989861 10.2115
1 0.00225307 13.3882 10.1896
1 4.29007 10.9009 10.1763
1 8.57667 8.41304 10.1868
1 12.8661 5.94246 10.1821
1 0.015971 18.3591 10.2269
1 4.29858 15.883 10.2062
1 8.58651 13.3855 10.1899
1 12.875 10.9024 10.1826
1 1.30537 0.811689 10.2412
1 5.58866 18.1396 10.1914
1 9.88814 15.6309 10.1947
1 14.1775 13.1505 10.196
1 1.26615 5.78867 10.1031
1 5.44841 3.23351 10.15
1 9.87763 0.753504 10.2002
1 14.1971 18.1153 10.2132
1 1.29007 10.6759 10.1805
1 5.56976 8.17424 10.1676
1 9.86271 5.70651 10.1854
1 14.174 3.23878 10.1874
1 1.30794 15.6338 10.2033
1 5.591 13.1504 10.1871
1 9.87423 10.6653 10.1873
1 14.1658 8.19268 10.1773
1 4.16351 19.1536 7.96777
1 8.45722 16.6108 7.92857
1 12.7493 14.1273 7.93209
1 17.0394 11.6518 7.91578
1 4.11693 4.21651 8.0068
1 8.46389 1.73488 7.94544
1 12.758 19.0911 7.94395
1 17.0503 16.6209 7.95923
1 4.16598 9.2043 7.88905
1 8.43241 6.6852 7.92206
1 12.7362 4.20887 7.91758
1 17.0512 1.74559 7.95445
1 4.15844 14.1448 7.93194
1 8.44717 11.6528 7.92129
1 12.7363 9.1642 7.91106
1 17.0337 6.68781 7.86247
1 2.87873 1.62451 8.07154
1 7.17541 18.8562 7.93647
1 11.4582 16.3775 7.9393
1 15.7452 13.8995 7.94005
1 2.86786 6.50248 7.8931
1 7.12332 3.96248 7.96209
1 11.4577 1.50005 7.93876
1 15.7556 18.871 7.9581
1 2.8558 11.4289 7.92317
1 7.14042 8.93315 7.91745
1 11.4345 6.45221 7.91689
1 15.7398 3.98463 7.89231
1 2.86362 16.4043 7.953
1 7.15598 13.9076 7.92693
1 11.4434 11.4123 7.92644
1 15.7352 8.93564 7.90998
1 1.5876 19.1351 7.95336
1 5.85838 16.6295 7.93317
1 10.1559 14.1298 7.92469
1 14.4451 11.6487 7.91798
1 1.59775 4.2249 8.03297
1 5.89801 1.70299 7.92155
1 10.1657 19.0866 7.93849
1 14.4593 16.6151 7.93757
1 1.55892 9.1842 7.89786
1 5.83366 6.69332 7.92467
1 10.1385 4.2063 7.93382
1 14.4593 1.73456 7.95443
1 1.56938 14.1424 7.92422
1 5.85819 11.6648 7.91111
1 10.1387 9.16578 7.91815
1 14.4372 6.68958 7.90862
1 1.57789 0.693653 1.21318
1 5.86523 18.1057 1.15054
1 10.1584 15.6262 1.13426
1 14.4484 13.1362 1.13286
1 1.56447 5.63712 1.01973
1 5.86782 3.21407 1.1248
1 10.1766 0.75359 1.14591
1 14.4584 18.1003 1.15588
1 1.5668 10.6548 1.10624
1 5.8534 8.17125 1.10802
1 10.1605 5.70633 1.12685
1 14.4943 3.23292 1.12377
1 1.56603 15.615 1.14619
1 5.86003 13.1424 1.12252
1 10.15 10.6626 1.12254
1 14.4552 8.17885 1.11006
1 2.88307 18.3186 1.13164
1 7.16329 15.8603 1.13163
1 11.4518 13.3771 1.1302
1 15.7476 10.8875 1.11739
1 2.87538 3.40819 1.11033
1 7.1853 0.978878 1.16855
1 11.4658 18.3442 1.13934
1 15.7449 15.8497 1.14567
1 2.85741 8.3938 1.09648
1 7.15796 5.92408 1.12827
1 11.473 3.46309 1.13256
1 15.7715 0.98382 1.17148
1 2.86577 13.373 1.12371
1 7.15303 10.8915 1.11797
1 11.4475 8.41527 1.12123
1 15.7531 5.93089 1.1172
1 4.17728 0.745046 1.13179
1 8.4653 18.1045 1.13705
1 12.7523 15.6227 1.14394
1 17.0429 13.1375 1.13492
1 4.16106 5.67762 1.09998
1 8.46684 3.22615 1.13466
1 12.7734 0.758028 1.14404
1 17.0507 18.0834 1.16701
1 4.15515 10.6526 1.12309
1 8.44494 8.17962 1.12306
1 12.7558 5.71129 1.11434
1 17.1196 3.22195 1.09478
1 4.16513 15.6181 1.13412
1 8.45286 13.1423 1.12978
1 12.7442 10.6607 1.12574
1 17.0547 8.16533 1.09687
1 2.72748 1.70897 12.5269
1 7.03472 19.0777 12.4721
1 11.3227 16.61 12.4685
1 15.6101 14.1294 12.4667
1 2.72989 6.69701 12.4226
1 7.0188 4.18272 12.4539
1 11.3345 1.73387 12.4705
1 15.6184 19.0746 12.5009
1 2.72564 11.6509 12.4453
1 7.0099 9.16097 12.4405
1 11.3153 6.68734 12.4467
1 15.6833 4.21379 12.4379
1 2.73188 16.6135 12.4644
1 7.02209 14.1318 12.456
1 11.3111 11.6478 12.4539
1 15.6098 9.17027 12.4406
1 5.771 1.468 12.5187
1 10.0328 18.8567 12.4702
1 14.3131 16.3734 12.4768
1 1.42558 8.93651 12.4094
1 5.70981 6.42864 12.4423
1 10.0306 3.97518 12.4596
1 14.3367 1.50461 12.4727
1 1.4321 13.9006 12.4606
1 5.72014 11.4131 12.4486
1 10.0114 8.93015 12.451
1 14.3217 6.44998 12.4326
1 1.42822 18.8538 12.489
1 5.73226 16.3838 12.4638
1 10.0182 13.8955 12.4606
1 14.3092 11.4145 12.4538
1 0.151177 1.73975 12.505
1 4.44232 19.1026 12.4421
1 8.73201 16.6084 12.4581
1 13.0166 14.1284 12.4637
1 0.138758 6.68792 12.4074
1 4.42303 4.13199 12.4115
1 8.74486 1.72334 12.4743
1 13.0315 19.0947 12.4676
1 0.128886 11.6573 12.4517
1 4.41866 9.16577 12.4335
1 8.71074 6.68122 12.4527
1 13.0475 4.21058 12.4596
1 0.136937 16.6111 12.479
1 4.43169 14.1332 12.4522
1 8.71595 11.6471 12.4495
1 13.0114 9.16928 12.4486
1 0.164466 3.24688 5.68312
1 4.42054 0.763323 5.7103
1 8.73268 18.1082 5.66866
1 13.0227 15.6224 5.67472
1 0.140313 8.18011 5.62817
1 4.42283 5.69897 5.65506
1 8.71602 3.23234 5.6732
1 13.0328 0.751874 5.6789
1 0.135195 13.1418 5.66701
1 4.42993 10.6718 5.63523
1 8.71291 8.18583 5.65404
1 13.0136 5.70338 5.65593
1 0.147269 18.1094 5.71337
1 4.43169 15.6298 5.67459
1 8.72366 13.1487 5.65841
1 13.014 10.6592 5.65844
1 1.4594 0.989903 5.71747
1 5.73131 18.3482 5.68413
1 10.0278 15.8614 5.66569
1 14.3171 13.3741 5.65884
1 1.43694 5.91523 5.65076
1 5.69914 3.45083 5.71533
1 10.0288 0.985613 5.68036
1 14.3293 18.3437 5.67708
1 1.4356 10.8951 5.6371
1 5.72007 8.41485 5.64734
1 10.0074 5.93769 5.65886
1 14.3188 3.45953 5.65237
1 1.43597 15.8619 5.66869
1 5.72781 13.3845 5.65205
1 10.0154 10.8964 5.65328
1 14.3107 8.41239 5.63594
1 2.74466 3.23407 5.68981
1 7.02908 0.743714 5.65737
1 11.329 18.1065 5.67347
1 15.6188 15.6224 5.68208
1 2.72404 8.18011 5.62953
1 7.00825 5.69872 5.67092
1 11.3153 3.23203 5.6586
1 15.6349 0.759152 5.68358
1 2.72972 13.1463 5.66159
1 7.01689 10.6669 5.6589
1 11.3068 8.1819 5.64976
1 15.6092 5.7082 5.62325
1 2.7472 18.1031 5.69773
1 7.02813 15.6289 5.66491
1 11.3178 13.1405 5.66364
1 15.6103 10.6577 5.64885
2 0.0171691 19.8277 4.91396
2 4.30381 17.3469 4.8762
2 8.59804 14.8764 4.86242