LAMMPS (28 Jun 2014)
Processor partition = 3
Reading data file ...
  orthogonal box = (0 0 0) to (17.1781 19.8356 13.5931)
  1 by 1 by 1 MPI processor grid
  reading atoms ...
  479 atoms
287 atoms in group oxygen
192 atoms in group chromium
WARNING: Resetting reneighboring criteria during minimization (../min.cpp:168)
PPPM initialization ...
WARNING: System is not charge neutral, net charge = 2 (../kspace.cpp:278)
  G vector (1/distance) = 0.315056
  grid = 18 18 15
  stencil order = 5
  estimated absolute RMS force accuracy = 0.00121379
  estimated relative force accuracy = 8.42928e-05
  using double precision FFTs
  3d grid and FFT values/proc = 13750 4860
Setting up minimization ...
Memory usage per processor = 4.77636 Mbytes
Step PotEng Pxx Pyy Pzz Pxy Pxz Pyz Lx Ly Lz Temp 
       0   -14779.576   -138744.73   -136806.02    -35052.75    535.81848    2511.8531   -534.01762      17.1781      19.8356     13.59308            0 
     100   -14850.634   -84980.381   -86703.877   -188016.48   -311.67998    2050.6676    -99.53059      17.1781      19.8356     13.59308 0.0020201593 
     200   -14850.597   -84855.528   -86636.225   -187944.43   -365.55496    2102.2646   -222.63267      17.1781      19.8356     13.59308 0.0037063124 
     300   -14850.603   -84874.196   -86641.678   -187908.72   -366.23964    2138.8325   -252.81742      17.1781      19.8356     13.59308 0.00082994968 
     400    -14850.61     -84892.3   -86641.034   -187890.65   -361.80131    2158.3427   -256.11986      17.1781      19.8356     13.59308 0.00048074749 
     500    -14850.62   -84918.612   -86640.511    -187867.9   -354.96623    2183.2012   -256.22665      17.1781      19.8356     13.59308 2.4133486e-05 
     600   -14850.624   -84929.106   -86640.622   -187861.57   -351.97625    2190.9708   -255.77402      17.1781      19.8356     13.59308 2.9907142e-05 
     700   -14850.625   -84933.428   -86640.572    -187857.9   -350.54733    2194.8705   -255.14114      17.1781      19.8356     13.59308 2.3889617e-05 
     800   -14850.627   -84937.758   -86640.725   -187855.44   -349.49931    2197.8333   -254.75608      17.1781      19.8356     13.59308 1.9588399e-07 
     900   -14850.628   -84940.786   -86640.957   -187854.17   -348.69666    2200.2236   -254.27397      17.1781      19.8356     13.59308  4.90218e-08 
     959   -14850.628   -84941.622    -86641.03   -187853.63   -348.45616    2200.8704   -254.12164      17.1781      19.8356     13.59308 3.6560751e-07 
Loop time of 39.7399 on 1 procs for 959 steps with 479 atoms

Minimization stats:
  Stopping criterion = force tolerance
  Energy initial, next-to-last, final = 
        -14779.5758283     -14850.6280015     -14850.6280178
  Force two-norm initial, final = 76.8696 0.000880194
  Force max component initial, final = 12.5075 0.000265713
  Final line search alpha, max atom move = 0 0
  Iterations, force evaluations = 959 959

Pair  time (%) = 21.352 (53.7295)
Kspce time (%) = 2.42246 (6.0958)
Neigh time (%) = 0 (0)
Comm  time (%) = 0.0813053 (0.204594)
Outpt time (%) = 0.000319958 (0.00080513)
Other time (%) = 15.8837 (39.9693)

Nlocal:    479 ave 479 max 479 min
Histogram: 1 0 0 0 0 0 0 0 0 0
Nghost:    6483 ave 6483 max 6483 min
Histogram: 1 0 0 0 0 0 0 0 0 0
Neighs:    178997 ave 178997 max 178997 min
Histogram: 1 0 0 0 0 0 0 0 0 0

Total # of neighbors = 178997
Ave neighs/atom = 373.689
Neighbor list builds = 0
Dangerous builds = 0
WARNING: Resetting reneighboring criteria during minimization (../min.cpp:168)
Setting up minimization ...
Memory usage per processor = 4.77636 Mbytes
Step PotEng Pxx Pyy Pzz Pxy Pxz Pyz Lx Ly Lz Temp 
     959   -14850.628   -84941.622    -86641.03   -187853.63   -348.45616    2200.8704   -254.12164      17.1781      19.8356     13.59308            0 
    1000   -14850.627   -84938.571   -86640.087   -187855.11   -348.55976    2199.8473   -255.80938      17.1781      19.8356     13.59308 0.00015786806 
    1100   -14850.621   -84922.761   -86637.456   -187861.24    -354.3759    2190.6579   -261.45759      17.1781      19.8356     13.59308 6.9883124e-05 
    1193    -14850.62   -84921.808       -86637   -187862.22   -355.02267    2189.4864   -262.86166      17.1781      19.8356     13.59308 1.4380296e-07 
Loop time of 9.71879 on 1 procs for 234 steps with 479 atoms

Minimization stats:
  Stopping criterion = force tolerance
  Energy initial, next-to-last, final = 
        -14850.6280178     -14850.6197763     -14850.6197337
  Force two-norm initial, final = 0.000880194 0.000681675
  Force max component initial, final = 0.000265713 0.000103371
  Final line search alpha, max atom move = 0 0
  Iterations, force evaluations = 234 234

Pair  time (%) = 5.40112 (55.574)
Kspce time (%) = 0.504353 (5.18946)
Neigh time (%) = 0 (0)
Comm  time (%) = 0.0217967 (0.224274)
Outpt time (%) = 6.81877e-05 (0.000701607)
Other time (%) = 3.79146 (39.0116)

Nlocal:    479 ave 479 max 479 min
Histogram: 1 0 0 0 0 0 0 0 0 0
Nghost:    6483 ave 6483 max 6483 min
Histogram: 1 0 0 0 0 0 0 0 0 0
Neighs:    180506 ave 180506 max 180506 min
Histogram: 1 0 0 0 0 0 0 0 0 0

Total # of neighbors = 180506
Ave neighs/atom = 376.839
Neighbor list builds = 0
Dangerous builds = 0
