LAMMPS (28 Jun 2014)
Processor partition = 1
Reading data file ...
  orthogonal box = (0 0 0) to (17.1781 19.8356 13.5931)
  1 by 1 by 1 MPI processor grid
  reading atoms ...
  479 atoms
287 atoms in group oxygen
192 atoms in group chromium
WARNING: Resetting reneighboring criteria during minimization (../min.cpp:168)
PPPM initialization ...
WARNING: System is not charge neutral, net charge = 2 (../kspace.cpp:278)
  G vector (1/distance) = 0.315056
  grid = 18 18 15
  stencil order = 5
  estimated absolute RMS force accuracy = 0.00121379
  estimated relative force accuracy = 8.42928e-05
  using double precision FFTs
  3d grid and FFT values/proc = 13750 4860
Setting up minimization ...
Memory usage per processor = 4.77636 Mbytes
Step PotEng Pxx Pyy Pzz Pxy Pxz Pyz Lx Ly Lz Temp 
       0   -14779.043   -139064.17   -137284.27   -34982.418     79.99516    2383.8222   -64.032403      17.1781      19.8356     13.59308            0 
     100   -14850.754   -85465.788   -86776.076   -187959.02   -135.18096    2280.5927    2.5768742      17.1781      19.8356     13.59308 0.0018310465 
     200   -14850.758   -85396.295   -86719.139   -187845.64    -129.3328    2399.1706   -51.446495      17.1781      19.8356     13.59308 0.0037530593 
     300   -14850.762   -85438.815   -86732.976   -187839.84    -106.7565    2429.0184   -80.234597      17.1781      19.8356     13.59308 0.0001235529 
     400   -14850.764   -85457.943   -86735.213   -187840.01   -94.584952    2437.7099   -83.757116      17.1781      19.8356     13.59308 0.00022073022 
     500   -14850.765   -85477.512   -86733.974   -187840.24   -80.665133    2446.8369   -85.551507      17.1781      19.8356     13.59308 3.5114705e-06 
     600   -14850.765   -85482.397   -86733.809   -187841.18     -76.9697    2448.7859   -85.643373      17.1781      19.8356     13.59308 1.6942526e-07 
     700   -14850.765   -85484.792   -86734.275   -187840.57   -74.979074    2449.7769   -85.526094      17.1781      19.8356     13.59308 5.9288891e-06 
     800   -14850.766   -85486.702   -86734.327   -187840.07    -73.84705    2450.4249   -85.383961      17.1781      19.8356     13.59308 1.1720204e-08 
     900   -14850.766   -85488.066   -86734.551   -187840.21   -73.024821    2450.9252   -85.190394      17.1781      19.8356     13.59308 1.2885761e-09 
     959   -14850.766   -85488.357   -86734.991   -187840.08   -72.546733    2450.9084   -85.184351      17.1781      19.8356     13.59308 5.2193632e-08 
Loop time of 39.73 on 1 procs for 959 steps with 479 atoms

Minimization stats:
  Stopping criterion = force tolerance
  Energy initial, next-to-last, final = 
        -14779.0432366     -14850.7656963     -14850.7657058
  Force two-norm initial, final = 78.1299 0.000480625
  Force max component initial, final = 13.2534 0.000138467
  Final line search alpha, max atom move = 0 0
  Iterations, force evaluations = 959 959

Pair  time (%) = 19.8735 (50.0213)
Kspce time (%) = 2.03914 (5.13249)
Neigh time (%) = 0 (0)
Comm  time (%) = 0.0796125 (0.200384)
Outpt time (%) = 0.000327587 (0.000824533)
Other time (%) = 17.7375 (44.645)

Nlocal:    479 ave 479 max 479 min
Histogram: 1 0 0 0 0 0 0 0 0 0
Nghost:    6483 ave 6483 max 6483 min
Histogram: 1 0 0 0 0 0 0 0 0 0
Neighs:    178997 ave 178997 max 178997 min
Histogram: 1 0 0 0 0 0 0 0 0 0

Total # of neighbors = 178997
Ave neighs/atom = 373.689
Neighbor list builds = 0
Dangerous builds = 0
WARNING: Resetting reneighboring criteria during minimization (../min.cpp:168)
Setting up minimization ...
Memory usage per processor = 4.77636 Mbytes
Step PotEng Pxx Pyy Pzz Pxy Pxz Pyz Lx Ly Lz Temp 
     959   -14850.766   -85488.357   -86734.991   -187840.08   -72.546733    2450.9084   -85.184351      17.1781      19.8356     13.59308            0 
    1000   -14850.766   -85488.711   -86734.976   -187840.13   -72.266949    2450.9705   -85.177119      17.1781      19.8356     13.59308 1.5416784e-06 
    1100   -14850.765   -85484.229   -86733.852    -187839.2   -75.601213    2449.7665   -86.638896      17.1781      19.8356     13.59308 1.0886678e-05 
    1193   -14850.765   -85484.532   -86733.721   -187839.06    -75.45305    2450.0269   -87.068961      17.1781      19.8356     13.59308 5.4931736e-08 
Loop time of 9.71879 on 1 procs for 234 steps with 479 atoms

Minimization stats:
  Stopping criterion = force tolerance
  Energy initial, next-to-last, final = 
        -14850.7657058     -14850.7651527     -14850.7651255
  Force two-norm initial, final = 0.000480625 0.000612631
  Force max component initial, final = 0.000138467 9.55348e-05
  Final line search alpha, max atom move = 0 0
  Iterations, force evaluations = 234 234

Pair  time (%) = 4.9853 (51.2955)
Kspce time (%) = 0.560268 (5.76479)
Neigh time (%) = 0 (0)
Comm  time (%) = 0.0191534 (0.197076)
Outpt time (%) = 6.19888e-05 (0.000637825)
Other time (%) = 4.154 (42.742)

Nlocal:    479 ave 479 max 479 min
Histogram: 1 0 0 0 0 0 0 0 0 0
Nghost:    6483 ave 6483 max 6483 min
Histogram: 1 0 0 0 0 0 0 0 0 0
Neighs:    180384 ave 180384 max 180384 min
Histogram: 1 0 0 0 0 0 0 0 0 0

Total # of neighbors = 180384
Ave neighs/atom = 376.585
Neighbor list builds = 0
Dangerous builds = 0
