LAMMPS (28 Jun 2014)
Running on 21 partitions of processors
Step MaxReplicaForce MaxAtomForce GradV0 GradV1 GradVc EBF EBR RDT RD1 PE1 RD2 PE2 ... RDN PEN
0    84.605859    20.503039    79.155306    79.129157    84.606329    4.4960387    4.5056826     2.987928            0   -14778.347         0.05   -14779.096          0.1   -14779.463         0.15   -14779.443          0.2   -14779.037         0.25   -14778.274          0.3   -14777.234         0.35   -14776.062          0.4   -14774.965         0.45   -14774.167          0.5   -14773.851         0.55   -14774.083          0.6   -14774.793         0.65   -14775.805          0.7     -14776.9         0.75   -14777.883          0.8   -14778.624         0.85   -14779.059          0.9   -14779.165         0.95   -14778.935            1   -14778.356 
100   0.37955535  0.074193825   0.33359269   0.33320338   0.40331419    2.3981379    2.4005172    3.7440009            0   -14850.757  0.050480296   -14850.707   0.10075502   -14850.528     0.151958   -14850.215   0.20389567   -14849.826   0.25616404   -14849.405   0.30808035   -14849.001   0.35912549   -14848.668    0.4093411   -14848.448   0.45878765   -14848.359   0.50787879    -14848.39   0.55684616   -14848.515   0.60582618   -14848.714   0.65492373   -14848.974    0.7042407   -14849.285   0.75397993   -14849.631   0.80373129   -14849.987   0.85322188   -14850.313   0.90231048   -14850.566   0.95104924   -14850.714            1   -14850.759 
200   0.49949389   0.05215494  0.061986716  0.078061961   0.23977597    2.3754026    2.3838957    3.9433887            0   -14850.773  0.054579133   -14850.745   0.10852811   -14850.611   0.16168809    -14850.32   0.21411919   -14849.937   0.26582376   -14849.519   0.31685189    -14849.11   0.36727793   -14848.757   0.41713839    -14848.51   0.46657831   -14848.397   0.51565274   -14848.416   0.56445318   -14848.537   0.61305421   -14848.737   0.66155412   -14849.002   0.70988714    -14849.32    0.7582883   -14849.672   0.80656656   -14850.033   0.85492632   -14850.362   0.90325351   -14850.612   0.95159781   -14850.751            1   -14850.781 
300  0.039136599  0.011879201   0.00646098  0.023653806   0.29582159    2.3688164    2.3771299    3.9851225            0   -14850.774  0.053455805   -14850.752    0.1065921   -14850.643   0.15927261   -14850.379   0.21147047   -14850.007   0.26316535   -14849.591   0.31440855   -14849.174    0.3651819   -14848.804   0.41552261   -14848.536   0.46545489   -14848.405   0.51502061   -14848.413   0.56427682   -14848.529   0.61328478   -14848.727   0.66211417   -14848.994   0.71077091   -14849.315   0.75917499   -14849.671   0.80754282   -14850.036   0.85570668   -14850.367    0.9038025   -14850.617   0.95192144   -14850.754            1   -14850.782 
400  0.026672197 0.0087089633 0.0020909276  0.013181536   0.28627432    2.3661743    2.3750839    4.0080479            0   -14850.774  0.052571919   -14850.756   0.10495847   -14850.661   0.15706493   -14850.417   0.20884529   -14850.055   0.26029239   -14849.643   0.31140441   -14849.224   0.36216872   -14848.844   0.41259456    -14848.56   0.46270073   -14848.413   0.51251125   -14848.408   0.56205135   -14848.517   0.61134013   -14848.711   0.66040002   -14848.976   0.70926604   -14849.298    0.7579845   -14849.656   0.80658269   -14850.026   0.85503104   -14850.362    0.9033838   -14850.615   0.95170948   -14850.754            1   -14850.783 
500   0.01633431 0.0063719337 0.00034046144 0.0055541088   0.22062896    2.3711858    2.3803089    4.0255436            0   -14850.774  0.051618485   -14850.759   0.10314726   -14850.676   0.15453357    -14850.45    0.2057429     -14850.1    0.2567602   -14849.695    0.3075723   -14849.275   0.35817061   -14848.887   0.40855082   -14848.588   0.45871617   -14848.423   0.50867598   -14848.403   0.55843884   -14848.501    0.6080131    -14848.69   0.65741299   -14848.952   0.70665739   -14849.273   0.75576425   -14849.635   0.80475172   -14850.009   0.85364518   -14850.351   0.90246933   -14850.612    0.9512495   -14850.753            1   -14850.783 
600  0.048180095 0.0050562567 0.00011994628  0.002484512   0.17244068    2.3743099    2.3835179    4.0334592            0   -14850.774   0.05098416    -14850.76   0.10191911   -14850.683   0.15277189   -14850.468   0.20353397   -14850.127   0.25417983   -14849.726    0.3047046   -14849.308   0.35510189   -14848.916   0.40536526   -14848.609   0.45549492   -14848.431    0.5054923     -14848.4   0.55536123    -14848.49   0.60510834   -14848.674   0.65474236   -14848.933   0.70427164   -14849.253   0.75370815   -14849.616   0.80306793   -14849.994    0.8523567   -14850.342   0.90160509   -14850.608    0.9508095   -14850.753            1   -14850.783 
700  0.012913845 0.0030978782 5.9069832e-05 0.0014632982   0.15262982    2.3751001    2.3842858    4.0358665            0   -14850.774  0.050726453    -14850.76   0.10141969   -14850.685   0.15205755   -14850.475   0.20262494   -14850.136   0.25311172   -14849.738   0.30351014    -14849.32   0.35381406   -14848.928   0.40401923   -14848.617   0.45412368   -14848.435   0.50412831   -14848.399    0.5540357   -14848.486   0.60385052   -14848.667   0.65357859   -14848.925    0.7032271   -14849.245   0.75280461   -14849.609   0.80232077   -14849.988   0.85178624   -14850.338   0.90121332   -14850.606   0.95061395   -14850.753            1   -14850.783 
800 0.0049031973 0.0021773625 0.00011016301 0.0008276207   0.13509196     2.375742     2.384935    4.0376374            0   -14850.774  0.050502427    -14850.76   0.10098333   -14850.687   0.15142756    -14850.48   0.20182502   -14850.145   0.25216755   -14849.748   0.30244964   -14849.331   0.35266653   -14848.938   0.40281478   -14848.624   0.45289249   -14848.438   0.50289991   -14848.398   0.55283853   -14848.482   0.60271147   -14848.662   0.65252273   -14848.918   0.70227721   -14849.238   0.75198085   -14849.602   0.80164047   -14849.982   0.85126325   -14850.335   0.90085885   -14850.604   0.95043447   -14850.752            1   -14850.783 
900 0.0028406926 0.0015717289 0.00010967515 0.00048796481   0.12353164    2.3763227    2.3854641    4.0386129            0   -14850.774  0.050356273    -14850.76   0.10069811   -14850.688   0.15101495   -14850.483    0.2012996    -14850.15   0.25154594   -14849.754   0.30174985   -14849.338   0.35190764   -14848.944   0.40201657   -14848.629   0.45207478    -14848.44   0.50208259   -14848.398   0.55204078    -14848.48   0.60195145   -14848.658   0.65181733   -14848.913   0.70164187   -14849.233    0.7514293   -14849.597   0.80118451   -14849.978    0.8509127   -14850.332   0.90062079   -14850.603   0.95031414   -14850.752            1   -14850.783 
1000 0.0016400074 0.0011242122 0.00010947515 0.00029890474   0.11516766    2.3766072    2.3857187    4.0392081            0   -14850.774  0.050251207    -14850.76   0.10049268   -14850.689   0.15071713   -14850.485   0.20091942   -14850.153   0.25109507   -14849.759   0.30124097   -14849.343   0.35135438   -14848.949    0.4014332   -14848.632    0.4514762   -14848.441    0.5014832   -14848.397    0.5514547   -14848.478   0.60139213   -14848.655    0.6512974    -14848.91   0.70117293   -14849.229   0.75102169   -14849.594   0.80084714   -14849.975   0.85065305    -14850.33   0.90044426   -14850.602   0.95022486   -14850.752            1   -14850.783 
Climbing replica = 11
Step MaxReplicaForce MaxAtomForce GradV0 GradV1 GradVc EBF EBR RDT RD1 PE1 RD2 PE2 ... RDN PEN
1000   0.11516766  0.094909185 0.00010947515 0.00029890474   0.11516766    2.3766072    2.3857187    4.0392081            0   -14850.774  0.050251207    -14850.76   0.10049268   -14850.689   0.15071713   -14850.485   0.20091942   -14850.153   0.25109507   -14849.759   0.30124097   -14849.343   0.35135438   -14848.949    0.4014332   -14848.632    0.4514762   -14848.441    0.5014832   -14848.397    0.5514547   -14848.478   0.60139213   -14848.655    0.6512974    -14848.91   0.70117293   -14849.229   0.75102169   -14849.594   0.80084714   -14849.975   0.85065305    -14850.33   0.90044426   -14850.602   0.95022486   -14850.752            1   -14850.783 
1100  0.017204371 0.0038042027 3.5222317e-05 0.00016406119 0.0025131542    2.3790264    2.3881811    4.0407526            0   -14850.774  0.049756231   -14850.761  0.099400422   -14850.692   0.14890243   -14850.498   0.19826475   -14850.176   0.24751776   -14849.791   0.29670892   -14849.383   0.34586167   -14848.993   0.39497106   -14848.669   0.44402696   -14848.461   0.49302851   -14848.395   0.54397818   -14848.458   0.59487113   -14848.626   0.64570905   -14848.876   0.69650254   -14849.195    0.7472599   -14849.563   0.79797562   -14849.952    0.8486229   -14850.316   0.89917093   -14850.596   0.94962056   -14850.751            1   -14850.783 
1200 0.0024312973 0.00057680354 2.7111912e-05 0.00011771294 0.00016058477    2.3790556    2.3882622    4.0406224            0   -14850.774  0.049362271   -14850.761  0.098716516   -14850.694   0.14805419   -14850.502    0.1973708   -14850.182    0.2466629   -14849.797   0.29592985   -14849.389   0.34517309   -14848.997   0.39439659   -14848.672   0.44360606   -14848.462   0.49280837   -14848.395   0.54358414   -14848.457   0.59435505   -14848.624   0.64511649   -14848.873   0.69586424   -14849.191   0.74659515   -14849.559   0.79730759   -14849.947   0.84800176   -14850.312    0.8986796   -14850.594   0.94934407    -14850.75            1   -14850.783 
1232 0.00094148652 0.00032218813 3.7834301e-05 0.00010460228 0.00012449602    2.3790502    2.3882455    4.0405826            0   -14850.774  0.049327199   -14850.761  0.098649675   -14850.694   0.14796355   -14850.502   0.19726539   -14850.182   0.24655325   -14849.798   0.29582679    -14849.39   0.34508723   -14848.998   0.39433644   -14848.672   0.44357746   -14848.463   0.49281419   -14848.395   0.54356614   -14848.457    0.5943148   -14848.623   0.64505731   -14848.873   0.69579148    -14849.19   0.74651591   -14849.558   0.79722992   -14849.947   0.84793367   -14850.311   0.89862835   -14850.593   0.94931633    -14850.75            1   -14850.783 
