479
Atoms. Timestep: 0
1 1.314 19.0766 3.398
1 5.609 16.5976 3.398
1 9.903 14.1176 3.398
1 14.198 11.6386 3.398
1 1.314 4.2 3.398
1 5.609 1.721 3.398
1 9.903 19.0766 3.398
1 14.198 16.5976 3.398
1 1.314 9.159 3.398
1 5.609 6.68 3.398
1 9.903 4.2 3.398
1 14.198 1.721 3.398
1 1.314 14.118 3.398
1 5.609 11.639 3.398
1 9.903 9.159 3.398
1 14.198 6.68 3.398
1 0 1.517 3.398
1 4.295 18.8736 3.398
1 8.589 16.3946 3.398
1 12.884 13.9146 3.398
1 0 6.476 3.398
1 4.295 3.997 3.398
1 8.589 1.517 3.398
1 12.884 18.8736 3.398
1 0 11.435 3.398
1 4.295 8.956 3.398
1 8.589 6.476 3.398
1 12.884 3.997 3.398
1 0 16.394 3.398
1 4.295 13.915 3.398
1 8.589 11.435 3.398
1 12.884 8.956 3.398
1 2.98 1.721 3.398
1 7.275 19.0766 3.398
1 11.569 16.5976 3.398
1 15.864 14.1176 3.398
1 2.98 6.68 3.398
1 7.275 4.2 3.398
1 11.569 1.721 3.398
1 15.864 19.0766 3.398
1 2.98 11.639 3.398
1 7.275 9.159 3.398
1 11.569 6.68 3.398
1 15.864 4.2 3.398
1 2.98 16.597 3.398
1 7.275 14.118 3.398
1 11.569 11.639 3.398
1 15.864 9.159 3.398
1 2.98 18.1146 10.195
1 7.275 15.6356 10.195
1 11.569 13.1556 10.195
1 15.864 10.6766 10.195
1 2.98 3.238 10.195
1 7.275 0.759 10.195
1 11.569 18.1146 10.195
1 15.864 15.6356 10.195
1 2.98 8.197 10.195
1 7.275 5.718 10.195
1 11.569 3.238 10.195
1 15.864 0.759 10.195
1 2.98 13.156 10.195
1 7.275 10.677 10.195
1 11.569 8.197 10.195
1 15.864 5.718 10.195
1 0 3.441 10.195
1 4.295 0.962 10.195
1 8.589 18.3186 10.195
1 12.884 15.8386 10.195
1 0 8.4 10.195
1 4.295 5.921 10.195
1 8.589 3.441 10.195
1 12.884 0.962 10.195
1 0 13.359 10.195
1 4.295 10.88 10.195
1 8.589 8.4 10.195
1 12.884 5.921 10.195
1 0 18.318 10.195
1 4.295 15.839 10.195
1 8.589 13.359 10.195
1 12.884 10.88 10.195
1 1.314 0.759 10.195
1 5.609 18.1146 10.195
1 9.903 15.6356 10.195
1 14.198 13.1556 10.195
1 1.314 5.718 10.195
1 5.609 3.238 10.195
1 9.903 0.759 10.195
1 14.198 18.1146 10.195
1 1.314 10.677 10.195
1 5.609 8.197 10.195
1 9.903 5.718 10.195
1 14.198 3.238 10.195
1 1.314 15.635 10.195
1 5.609 13.156 10.195
1 9.903 10.677 10.195
1 14.198 8.197 10.195
1 4.177 19.0766 7.929
1 8.472 16.5976 7.929
1 12.766 14.1176 7.929
1 17.061 11.6386 7.929
1 4.177 4.2 7.929
1 8.472 1.721 7.929
1 12.766 19.0766 7.929
1 17.061 16.5976 7.929
1 4.177 9.159 7.929
1 8.472 6.68 7.929
1 12.766 4.2 7.929
1 17.061 1.721 7.929
1 4.177 14.118 7.929
1 8.472 11.639 7.929
1 12.766 9.159 7.929
1 17.061 6.68 7.929
1 2.863 1.517 7.929
1 7.158 18.8736 7.929
1 11.452 16.3946 7.929
1 15.747 13.9146 7.929
1 2.863 6.476 7.929
1 7.158 3.997 7.929
1 11.452 1.517 7.929
1 15.747 18.8736 7.929
1 2.863 11.435 7.929
1 7.158 8.956 7.929
1 11.452 6.476 7.929
1 15.747 3.997 7.929
1 2.863 16.394 7.929
1 7.158 13.915 7.929
1 11.452 11.435 7.929
1 15.747 8.956 7.929
1 1.549 19.0766 7.929
1 5.843 16.5976 7.929
1 10.138 14.1176 7.929
1 14.432 11.6386 7.929
1 1.549 4.2 7.929
1 5.843 1.721 7.929
1 10.138 19.0766 7.929
1 14.432 16.5976 7.929
1 1.549 9.159 7.929
1 5.843 6.68 7.929
1 10.138 4.2 7.929
1 14.432 1.721 7.929
1 1.549 14.118 7.929
1 5.843 11.639 7.929
1 10.138 9.159 7.929
1 14.432 6.68 7.929
1 1.549 0.759 1.133
1 5.843 18.1146 1.133
1 10.138 15.6356 1.133
1 14.432 13.1556 1.133
1 1.549 5.718 1.133
1 5.843 3.238 1.133
1 10.138 0.759 1.133
1 14.432 18.1146 1.133
1 1.549 10.677 1.133
1 5.843 8.197 1.133
1 10.138 5.718 1.133
1 14.432 3.238 1.133
1 1.549 15.635 1.133
1 5.843 13.156 1.133
1 10.138 10.677 1.133
1 14.432 8.197 1.133
1 2.863 18.3186 1.133
1 7.158 15.8386 1.133
1 11.452 13.3596 1.133
1 15.747 10.8796 1.133
1 2.863 3.441 1.133
1 7.158 0.962 1.133
1 11.452 18.3186 1.133
1 15.747 15.8386 1.133
1 2.863 8.4 1.133
1 7.158 5.921 1.133
1 11.452 3.441 1.133
1 15.747 0.962 1.133
1 2.863 13.359 1.133
1 7.158 10.88 1.133
1 11.452 8.4 1.133
1 15.747 5.921 1.133
1 4.177 0.759 1.133
1 8.472 18.1146 1.133
1 12.766 15.6356 1.133
1 17.061 13.1556 1.133
1 4.177 5.718 1.133
1 8.472 3.238 1.133
1 12.766 0.759 1.133
1 17.061 18.1146 1.133
1 4.177 10.677 1.133
1 8.472 8.197 1.133
1 12.766 5.718 1.133
1 17.061 3.238 1.133
1 4.177 15.635 1.133
1 8.472 13.156 1.133
1 12.766 10.677 1.133
1 17.061 8.197 1.133
1 2.746 1.721 12.46
1 7.04 19.0766 12.46
1 11.335 16.5976 12.46
1 15.629 14.1176 12.46
1 2.746 6.68 12.46
1 7.04 4.2 12.46
1 11.335 1.721 12.46
1 15.629 19.0766 12.46
1 2.746 11.639 12.46
1 7.04 9.159 12.46
1 11.335 6.68 12.46
1 15.629 4.2 12.46
1 2.746 16.597 12.46
1 7.04 14.118 12.46
1 11.335 11.639 12.46
1 15.629 9.159 12.46
1 5.726 1.517 12.46
1 10.021 18.8736 12.46
1 14.315 16.3946 12.46
1 1.432 8.956 12.46
1 5.726 6.476 12.46
1 10.021 3.997 12.46
1 14.315 1.517 12.46
1 1.432 13.915 12.46
1 5.726 11.435 12.46
1 10.021 8.956 12.46
1 14.315 6.476 12.46
1 1.432 18.874 12.46
1 5.726 16.394 12.46
1 10.021 13.915 12.46
1 14.315 11.435 12.46
1 0.117 1.721 12.46
1 4.412 19.0766 12.46
1 8.706 16.5976 12.46
1 13.001 14.1176 12.46
1 0.7745 5.3385 12.46
1 4.412 4.2 12.46
1 8.706 1.721 12.46
1 13.001 19.0766 12.46
1 0.117 11.639 12.46
1 4.412 9.159 12.46
1 8.706 6.68 12.46
1 13.001 4.2 12.46
1 0.117 16.597 12.46
1 4.412 14.118 12.46
1 8.706 11.639 12.46
1 13.001 9.159 12.46
1 0.117 3.238 5.664
1 4.412 0.759 5.664
1 8.706 18.1146 5.664
1 13.001 15.6356 5.664
1 0.117 8.197 5.664
1 4.412 5.718 5.664
1 8.706 3.238 5.664
1 13.001 0.759 5.664
1 0.117 13.156 5.664
1 4.412 10.677 5.664
1 8.706 8.197 5.664
1 13.001 5.718 5.664
1 0.117 18.115 5.664
1 4.412 15.635 5.664
1 8.706 13.156 5.664
1 13.001 10.677 5.664
1 1.432 0.962 5.664
1 5.726 18.3186 5.664
1 10.021 15.8386 5.664
1 14.315 13.3596 5.664
1 1.432 5.921 5.664
1 5.726 3.441 5.664
1 10.021 0.962 5.664
1 14.315 18.3186 5.664
1 1.432 10.88 5.664
1 5.726 8.4 5.664
1 10.021 5.921 5.664
1 14.315 3.441 5.664
1 1.432 15.839 5.664
1 5.726 13.359 5.664
1 10.021 10.88 5.664
1 14.315 8.4 5.664
1 2.746 3.238 5.664
1 7.04 0.759 5.664
1 11.335 18.1146 5.664
1 15.629 15.6356 5.664
1 2.746 8.197 5.664
1 7.04 5.718 5.664
1 11.335 3.238 5.664
1 15.629 0.759 5.664
1 2.746 13.156 5.664
1 7.04 10.677 5.664
1 11.335 8.197 5.664
1 15.629 5.718 5.664
1 2.746 18.115 5.664
1 7.04 15.635 5.664
1 11.335 13.156 5.664
1 15.629 10.677 5.664
2 0 0 4.724
2 4.295 17.3566 4.724
2 8.589 14.8766 4.724
2 12.884 12.3976 4.724
2 0 4.959 4.724
2 4.295 2.479 4.724
2 8.589 0 4.724
2 12.884 17.3566 4.724
2 0 9.918 4.724
2 4.295 7.438 4.724
2 8.589 4.959 4.724
2 12.884 2.479 4.724
2 0 14.877 4.724
2 4.295 12.397 4.724
2 8.589 9.918 4.724
2 12.884 7.438 4.724
2 0 0 2.073
2 4.295 17.3566 2.073
2 8.589 14.8766 2.073
2 12.884 12.3976 2.073
2 0 4.959 2.073
2 4.295 2.479 2.073
2 8.589 0 2.073
2 12.884 17.3566 2.073
2 0 9.918 2.073
2 4.295 7.438 2.073
2 8.589 4.959 2.073
2 12.884 2.479 2.073
2 0 14.877 2.073
2 4.295 12.397 2.073
2 8.589 9.918 2.073
2 12.884 7.438 2.073
2 0 0 8.869
2 4.295 17.3566 8.869
2 8.589 14.8766 8.869
2 12.884 12.3976 8.869
2 0 4.959 8.869
2 4.295 2.479 8.869
2 8.589 0 8.869
2 12.884 17.3566 8.869
2 0 9.918 8.869
2 4.295 7.438 8.869
2 8.589 4.959 8.869
2 12.884 2.479 8.869
2 0 14.877 8.869
2 4.295 12.397 8.869
2 8.589 9.918 8.869
2 12.884 7.438 8.869
2 0 0 11.52
2 4.295 17.3566 11.52
2 8.589 14.8766 11.52
2 12.884 12.3976 11.52
2 0 4.959 11.52
2 4.295 2.479 11.52
2 8.589 0 11.52
2 12.884 17.3566 11.52
2 0 9.918 11.52
2 4.295 7.438 11.52
2 8.589 4.959 11.52
2 12.884 2.479 11.52
2 0 14.877 11.52
2 4.295 12.397 11.52
2 8.589 9.918 11.52
2 12.884 7.438 11.52
2 2.863 0 9.255
2 7.158 17.3566 9.255
2 11.452 14.8766 9.255
2 15.747 12.3976 9.255
2 2.863 4.959 9.255
2 7.158 2.479 9.255
2 11.452 0 9.255
2 15.747 17.3566 9.255
2 2.863 9.918 9.255
2 7.158 7.438 9.255
2 11.452 4.959 9.255
2 15.747 2.479 9.255
2 2.863 14.877 9.255
2 7.158 12.397 9.255
2 11.452 9.918 9.255
2 15.747 7.438 9.255
2 2.863 0 6.604
2 7.158 17.3566 6.604
2 11.452 14.8766 6.604
2 15.747 12.3976 6.604
2 2.863 4.959 6.604
2 7.158 2.479 6.604
2 11.452 0 6.604
2 15.747 17.3566 6.604
2 2.863 9.918 6.604
2 7.158 7.438 6.604
2 11.452 4.959 6.604
2 15.747 2.479 6.604
2 2.863 14.877 6.604
2 7.158 12.397 6.604
2 11.452 9.918 6.604
2 15.747 7.438 6.604
2 2.863 0 13.401
2 7.158 17.3566 13.401
2 11.452 14.8766 13.401
2 15.747 12.3976 13.401
2 2.863 4.959 13.401
2 7.158 2.479 13.401
2 11.452 0 13.401
2 15.747 17.3566 13.401
2 2.863 9.918 13.401
2 7.158 7.438 13.401
2 11.452 4.959 13.401
2 15.747 2.479 13.401
2 2.863 14.877 13.401
2 7.158 12.397 13.401
2 11.452 9.918 13.401
2 15.747 7.438 13.401
2 2.863 0 2.458
2 7.158 17.3566 2.458
2 11.452 14.8766 2.458
2 15.747 12.3976 2.458
2 2.863 4.959 2.458
2 7.158 2.479 2.458
2 11.452 0 2.458
2 15.747 17.3566 2.458
2 2.863 9.918 2.458
2 7.158 7.438 2.458
2 11.452 4.959 2.458
2 15.747 2.479 2.458
2 2.863 14.877 2.458
2 7.158 12.397 2.458
2 11.452 9.918 2.458
2 15.747 7.438 2.458
2 1.432 2.479 0.193
2 5.726 0 0.193
2 10.021 17.3566 0.193
2 14.315 14.8766 0.193
2 1.432 7.438 0.193
2 5.726 4.959 0.193
2 10.021 2.479 0.193
2 14.315 0 0.193
2 1.432 12.397 0.193
2 5.726 9.918 0.193
2 10.021 7.438 0.193
2 14.315 4.959 0.193
2 1.432 17.356 0.193
2 5.726 14.877 0.193
2 10.021 12.397 0.193
2 14.315 9.918 0.193
2 1.432 2.479 11.135
2 5.726 0 11.135
2 10.021 17.3566 11.135
2 14.315 14.8766 11.135
2 1.432 7.438 11.135
2 5.726 4.959 11.135
2 10.021 2.479 11.135
2 14.315 0 11.135
2 1.432 12.397 11.135
2 5.726 9.918 11.135
2 10.021 7.438 11.135
2 14.315 4.959 11.135
2 1.432 17.356 11.135
2 5.726 14.877 11.135
2 10.021 12.397 11.135
2 14.315 9.918 11.135
2 1.432 2.479 4.338
2 5.726 0 4.338
2 10.021 17.3566 4.338
2 14.315 14.8766 4.338
2 1.432 7.438 4.338
2 5.726 4.959 4.338
2 10.021 2.479 4.338
2 14.315 0 4.338
2 1.432 12.397 4.338
2 5.726 9.918 4.338
2 10.021 7.438 4.338
2 14.315 4.959 4.338
2 1.432 17.356 4.338
2 5.726 14.877 4.338
2 10.021 12.397 4.338
2 14.315 9.918 4.338
2 1.432 2.479 6.989
2 5.726 0 6.989
2 10.021 17.3566 6.989
2 14.315 14.8766 6.989
2 1.432 7.438 6.989
2 5.726 4.959 6.989
2 10.021 2.479 6.989
2 14.315 0 6.989
2 1.432 12.397 6.989
2 5.726 9.918 6.989
2 10.021 7.438 6.989
2 14.315 4.959 6.989
2 1.432 17.356 6.989
2 5.726 14.877 6.989
2 10.021 12.397 6.989
2 14.315 9.918 6.944747479
Atoms. Timestep: 1232
1 1.29293 19.0988 3.38395
1 5.58747 16.614 3.39206
1 9.88558 14.1393 3.40895
1 14.1829 11.6544 3.42153
1 1.29368 4.24284 3.36943
1 5.57745 1.74105 3.39192
1 9.87897 19.0943 3.39635
1 14.1795 16.6131 3.40009
1 1.29805 9.14787 3.35844
1 5.59469 6.69622 3.3926
1 9.8839 4.20635 3.39614
1 14.1826 1.73939 3.38487
1 1.29704 14.1265 3.39344
1 5.59789 11.6546 3.39319
1 9.89584 9.17252 3.41973
1 14.2009 6.69261 3.42711
1 17.1742 1.51845 3.37895
1 4.28981 18.864 3.37943
1 8.5857 16.382 3.39389
1 12.8814 13.9021 3.40203
1 17.1738 6.48424 3.40328
1 4.29252 3.99834 3.38157
1 8.57904 1.50363 3.39131
1 12.8816 18.8619 3.39051
1 0.00688041 11.4095 3.39689
1 4.31569 8.94151 3.42378
1 8.59773 6.457 3.4072
1 12.8795 3.98123 3.39998
1 0.00102517 16.3751 3.39013
1 4.29617 13.8932 3.39176
1 8.59636 11.4187 3.40421
1 12.8808 8.93912 3.43785
1 2.98858 1.74918 3.36396
1 7.28392 19.0939 3.38815
1 11.5831 16.6183 3.40071
1 15.8792 14.129 3.4081
1 2.99156 6.7004 3.38583
1 7.2888 4.21303 3.39128
1 11.5858 1.73446 3.39263
1 15.8815 19.0955 3.38202
1 2.99391 11.6438 3.40155
1 7.30458 9.17044 3.40547
1 11.5979 6.69118 3.40697
1 15.8758 4.24632 3.36766
1 2.99525 16.6092 3.38341
1 7.29211 14.1336 3.39361
1 11.5852 11.6631 3.42667
1 15.8867 9.17495 3.43665
1 2.99365 18.0867 10.1782
1 7.29228 15.6337 10.1889
1 11.5943 13.1434 10.204
1 15.9047 10.6185 10.2147
1 2.97365 3.22947 10.1829
1 7.27656 0.759159 10.1903
1 11.5835 18.1109 10.1911
1 15.8817 15.6103 10.1904
1 3.04883 8.21908 10.1649
1 7.28336 5.71654 10.1977
1 11.591 3.23728 10.2027
1 15.8807 0.737234 10.1847
1 2.99368 13.1288 10.1911
1 7.30305 10.6746 10.1961
1 11.5978 8.19007 10.2245
1 15.9277 5.69312 10.2989
1 0.0228744 3.40967 10.1473
1 4.27456 0.988734 10.1789
1 8.58217 18.3498 10.1924
1 12.8824 15.8576 10.2027
1 0.0219249 8.28797 10.3332
1 4.27194 5.96089 10.2181
1 8.58116 3.47029 10.1924
1 12.8817 0.993147 10.1859
1 17.1774 13.3479 10.2089
1 4.31326 10.9059 10.1857
1 8.5974 8.42471 10.2047
1 12.8878 5.94358 10.2076
1 17.1673 18.3235 10.1864
1 4.29258 15.8494 10.183
1 8.5931 13.3856 10.1987
1 12.8937 10.8888 10.2224
1 1.30762 0.707064 10.158
1 5.58245 18.1073 10.1874
1 9.88617 15.6332 10.1982
1 14.1869 13.1328 10.2166
1 1.27223 5.70764 10.2391
1 5.572 3.23773 10.1925
1 9.87913 0.7591 10.1885
1 14.1767 18.1049 10.19
1 1.30214 10.6022 10.2189
1 5.61055 8.18939 10.207
1 9.88275 5.71344 10.2008
1 14.1974 3.24091 10.1835
1 1.29179 15.6101 10.1964
1 5.59291 13.1518 10.1876
1 9.89382 10.6705 10.2081
1 14.1875 8.17789 10.2255
1 4.15514 19.0811 7.922
1 8.45509 16.6143 7.92721
1 12.756 14.1282 7.94433
1 17.0604 11.6439 7.94836
1 4.15161 4.21541 7.93227
1 8.44547 1.7351 7.92471
1 12.7465 19.0934 7.92637
1 17.0417 16.6021 7.92394
1 4.16993 9.17919 7.90851
1 8.45671 6.68969 7.93379
1 12.749 4.20852 7.92993
1 17.04 1.72338 7.9032
1 4.16348 14.1242 7.91971
1 8.46517 11.6521 7.93476
1 12.7692 9.15977 7.95209
1 17.0641 6.68025 7.93543
1 2.8582 1.49605 7.91234
1 7.15324 18.8564 7.92349
1 11.4529 16.3783 7.92723
1 15.7491 13.8865 7.93065
1 2.84778 6.46646 7.96798
1 7.14809 3.97888 7.93236
1 11.4461 1.50482 7.92521
1 15.7463 18.8545 7.91154
1 2.86572 11.4062 7.93452
1 7.16689 8.93568 7.94104
1 11.4594 6.45709 7.94584
1 15.7575 3.99375 7.91366
1 2.8632 16.3647 7.91455
1 7.16338 13.8958 7.92716
1 11.4657 11.4116 7.94381
1 15.7761 8.92387 7.97696
1 1.56923 19.0725 7.90119
1 5.86052 16.6048 7.92012
1 10.1591 14.133 7.93907
1 14.4642 11.6389 7.96544
1 1.56758 4.21367 7.89686
1 5.85078 1.72893 7.9189
1 10.1517 19.0942 7.92676
1 14.4485 16.6085 7.93395
1 1.56029 9.15237 7.9706
1 5.85656 6.68824 7.93002
1 10.1538 4.21325 7.93208
1 14.4546 1.73799 7.922
1 1.56518 14.1221 7.93427
1 5.86898 11.6507 7.92547
1 10.1675 9.16946 7.9474
1 14.4775 6.67189 7.97224
1 1.55095 0.769039 1.10267
1 5.8468 18.1156 1.11906
1 10.1495 15.6375 1.13537
1 14.4474 13.1428 1.1474
1 1.4911 5.81661 1.0655
1 5.83412 3.24902 1.12013
1 10.1482 0.757155 1.12991
1 14.4469 18.1047 1.12824
1 1.56714 10.6388 1.10581
1 5.88018 8.20365 1.14067
1 10.1619 5.70923 1.14072
1 14.4496 3.23706 1.12095
1 1.5654 15.6217 1.12405
1 5.86581 13.1553 1.12253
1 10.1496 10.6726 1.14058
1 14.4122 8.23433 1.19543
1 2.85374 18.3503 1.12287
1 7.1514 15.87 1.1294
1 11.4425 13.3947 1.14812
1 15.7352 10.8985 1.1566
1 2.82965 3.51637 1.11841
1 7.14134 0.998056 1.12787
1 11.447 18.3466 1.1296
1 15.7449 15.8542 1.13317
1 2.92027 8.45864 1.17841
1 7.1526 5.94828 1.13566
1 11.4573 3.4715 1.12298
1 15.75 0.993386 1.10132
1 2.86304 13.3699 1.13065
1 7.16418 10.9069 1.13861
1 11.445 8.43113 1.15558
1 15.7649 5.99491 1.03356
1 4.13913 0.771626 1.10522
1 8.44489 18.1166 1.12606
1 12.7462 15.6307 1.13657
1 17.043 13.137 1.1338
1 4.12156 5.75319 1.11489
1 8.44445 3.23537 1.12298
1 12.749 0.752958 1.12429
1 17.0417 18.1053 1.12175
1 4.16859 10.689 1.12348
1 8.46347 8.18678 1.14574
1 12.7703 5.72324 1.14479
1 17.033 3.24793 1.11869
1 4.15501 15.6255 1.1237
1 8.45489 13.1558 1.1352
1 12.7278 10.7032 1.17207
1 17.0208 8.1746 1.0895
1 2.70043 1.77248 12.4288
1 7.00712 19.1006 12.455
1 11.3152 16.6136 12.4624
1 15.6206 14.1218 12.4661
1 2.58915 6.71055 12.4087
1 7.00174 4.21999 12.449
1 11.313 1.73638 12.4568
1 15.6063 19.0897 12.4567
1 2.72671 11.6271 12.4452
1 7.01879 9.17544 12.4659
1 11.3193 6.69061 12.4729
1 15.6331 4.20496 12.4238
1 2.72157 16.6117 12.4538
1 7.02186 14.1365 12.4548
1 11.3234 11.6474 12.4767
1 15.6114 9.12052 12.5047
1 5.71011 1.51861 12.4531
1 10.0133 18.8624 12.455
1 14.3163 16.3718 12.4579
1 1.35534 8.79845 12.5347
1 5.71284 6.47288 12.475
1 10.0149 3.9831 12.4617
1 14.3091 1.50476 12.449
1 1.42851 13.8763 12.4681
1 5.72606 11.4125 12.4557
1 10.0197 8.93573 12.4741
1 14.326 6.49971 12.5042
1 1.42039 18.871 12.4459
1 5.71874 16.3811 12.4528
1 10.0234 13.8991 12.4629
1 14.3222 11.4048 12.4932
1 0.138702 1.76653 12.408
1 4.41169 19.1035 12.4419
1 8.7183 16.6172 12.4581
1 13.0214 14.1272 12.4736
1 1.36365 4.07428 12.464
1 4.39952 4.24213 12.4477
1 8.71525 1.73911 12.4545
1 13.0155 19.091 12.4538
1 0.137746 11.6158 12.4756
1 4.40171 9.15891 12.4636
1 8.72229 6.69054 12.467
1 13.0354 4.22908 12.4574
1 0.13497 16.6075 12.4549
1 4.42298 14.1277 12.4528
1 8.72528 11.6535 12.4647
1 13.0289 9.17243 12.5082
1 0.1307 3.24024 5.64177
1 4.41752 0.747072 5.64484
1 8.71854 18.1106 5.6579
1 13.0173 15.6284 5.66623
1 0.145508 8.1932 5.67168
1 4.4212 5.71984 5.66808
1 8.71824 3.23272 5.66487
1 13.0168 0.755434 5.66064
1 0.138884 13.1377 5.66602
1 4.43917 10.675 5.65528
1 8.73484 8.18674 5.67408
1 13.0279 5.71089 5.687
1 0.132649 18.1024 5.64833
1 4.43047 15.6221 5.65082
1 8.72848 13.1494 5.66081
1 13.0289 10.6661 5.68295
1 1.4292 0.986274 5.64691
1 5.72097 18.3402 5.65634
1 10.0183 15.8664 5.66665
1 14.3113 13.3773 5.68172
1 1.43802 5.94826 5.66329
1 5.71756 3.46835 5.65753
1 10.0149 0.988966 5.65661
1 14.312 18.3428 5.65853
1 1.43898 10.8834 5.66667
1 5.73928 8.41987 5.67808
1 10.0281 5.9409 5.66716
1 14.3188 3.46767 5.64636
1 1.43024 15.8524 5.6618
1 5.73219 13.3802 5.66198
1 10.0293 10.901 5.68122
1 14.3322 8.41315 5.69832
1 2.72715 3.23069 5.63666
1 7.01444 0.752181 5.65523
1 11.3143 18.1131 5.66259
1 15.61 15.6251 5.66445
1 2.73189 8.19354 5.67049
1 7.02167 5.70876 5.66178
1 11.3169 3.2322 5.66289
1 15.6117 0.754323 5.64183
1 2.72872 13.14 5.6646
1 7.03243 10.6665 5.66731
1 11.3291 8.18505 5.69123
1 15.6282 5.7161 5.67315
1 2.72781 18.0998 5.63937
1 7.0235 15.6277 5.65939
1 11.3195 13.1529 5.68509
1 15.618 10.6684 5.69549
2 17.1758 19.8316 4.84839
2 4.29681 17.3518 4.85181
2 8.59109 14.8861 4.86482
2 12.8768 12.4096 4.89399
2 0.0014433 4.96753 4.85115
2 4.29712 2.47467 4.84922
2 8.58174 0.0010801 4.85978
2 12.877 17.3618 4.86532
2 17.1732 9.9306 4.88866
2 4.31685 7.45096 4.88539
2 8.59434 4.95823 4.86667
2 12.8715 2.47443 4.86046
2 17.1751 14.8801 4.86619
2 4.30488 12.4082 4.86135
2 8.60743 9.92113 4.87697
2 12.8884 7.44479 4.9082
2 17.1736 0.000980342 1.91297
2 4.28991 17.3604 1.91808
2 8.58363 14.8892 1.92873
2 12.8636 12.4366 1.96673
2 17.1686 4.97839 1.90762
2 4.27885 2.49133 1.91276
2 8.57892 0.00712284 1.92443
2 12.8795 17.3618 1.92941
2 17.1715 9.95412 1.95021
2 4.35269 7.45628 1.96845
2 8.58448 4.95449 1.93007
2 12.8775 2.4722 1.92712
2 0.00155336 14.8818 1.92941
2 4.31075 12.4158 1.92555
2 8.59384 9.92755 1.93984
2 12.8466 7.44857 1.98323
2 0.00567011 19.8115 8.70209
2 4.29741 17.3345 8.71508
2 8.59119 14.8882 8.72721
2 12.8858 12.4037 8.74336
2 0.0164711 4.95048 8.61053
2 4.29272 2.46072 8.71135
2 8.58226 0.00364062 8.72175
2 12.8785 17.3615 8.72604
2 0.011437 9.93739 8.73688
2 4.31866 7.45364 8.71139
2 8.58356 4.95659 8.72688
2 12.8724 2.47862 8.72017
2 17.1756 14.8733 8.72562
2 4.31615 12.414 8.71771
2 8.60004 9.92753 8.73497
2 12.8888 7.4355 8.74108
2 17.1551 19.8159 11.6452
2 4.288 17.3609 11.6528
2 8.59166 14.8873 11.6616
2 12.8811 12.4018 11.677
2 17.1508 4.69993 11.4693
2 4.30211 2.50042 11.659
2 8.57789 0.00531763 11.6575
2 12.879 17.3533 11.6615
2 17.1717 9.87623 11.7063
2 4.34321 7.45597 11.6611
2 8.58459 4.96123 11.6637
2 12.8739 2.47201 11.6558
2 0.00375611 14.8729 11.6602
2 4.30034 12.4094 11.6504
2 8.59502 9.92667 11.6685
2 12.862 7.45202 11.6678
2 2.87609 19.796 9.35776
2 7.15575 17.3636 9.39267
2 11.4511 14.8811 9.40496
2 15.7442 12.3911 9.41522
2 2.88337 4.94228 9.38214
2 7.15158 2.48158 9.39251
2 11.4423 0.00161032 9.39073
2 15.7374 17.3452 9.39175
2 2.89885 9.95452 9.36635
2 7.17574 7.44718 9.40174
2 11.4418 4.96169 9.39876
2 15.7328 2.44254 9.35235
2 2.85689 14.8673 9.39631
2 7.17071 12.4084 9.39542
2 11.4573 9.92166 9.41651
2 15.7531 7.42477 9.43921
2 2.86082 19.8201 6.432
2 7.15743 17.3573 6.45602
2 11.4486 14.8895 6.47018
2 15.7462 12.41 6.47741
2 2.86622 4.94731 6.44335
2 7.15236 2.47559 6.4558
2 11.4458 0.00369218 6.45662
2 15.744 17.3582 6.45454
2 2.88789 9.93544 6.44849
2 7.1722 7.43652 6.46721
2 11.4453 4.95306 6.46681
2 15.7449 2.47205 6.42774
2 2.8709 14.8787 6.45674
2 7.169 12.406 6.45978
2 11.4575 9.92387 6.4823
2 15.7603 7.43729 6.49103
2 2.84912 0.0108042 13.2451
2 7.15055 17.367 13.2515
2 11.4491 14.8871 13.2643
2 15.7631 12.4132 13.2641
2 2.82965 4.9939 13.2339
2 7.15048 2.48681 13.2542
2 11.4442 0.000653124 13.2529
2 15.7449 17.3507 13.2556
2 2.89592 9.95617 13.2687
2 7.16898 7.44592 13.272
2 11.4404 4.95937 13.263
2 15.7342 2.4577 13.2576
2 2.86364 14.8811 13.2526
2 7.16129 12.4122 13.2558
2 11.427 9.92408 13.2798
2 15.5073 7.56088 13.466
2 2.85912 0.00331668 2.58389
2 7.1538 17.3629 2.59323
2 11.4398 14.8963 2.60787
2 15.7346 12.4141 2.61713
2 2.87501 4.97334 2.60113
2 7.1465 2.48076 2.59538
2 11.4426 19.8338 2.59585
2 15.7431 17.3561 2.59677
2 2.8923 9.93293 2.62352
2 7.18917 7.44479 2.61262
2 11.4469 4.95211 2.60599
2 15.7437 2.48858 2.59154
2 2.86336 14.8804 2.59478
2 7.16938 12.4067 2.59863
2 11.4485 9.9401 2.62903
2 15.7438 7.46285 2.72923
2 1.41515 2.50206 0.317517
2 5.71454 0.00861207 0.324421
2 10.0121 17.3636 0.333148
2 14.3086 14.8781 0.342054
2 1.52159 7.56659 0.499906
2 5.71189 4.97395 0.330469
2 10.0137 2.47928 0.330269
2 14.3043 19.8251 0.326442
2 1.43426 12.4057 0.340124
2 5.74649 9.93215 0.341501
2 10.0245 7.44043 0.348877
2 14.3012 4.94059 0.32904
2 1.42881 17.3566 0.325731
2 5.72688 14.8874 0.3263
2 10.0205 12.4101 0.345162
2 14.256 10.023 0.386103
2 1.47804 2.37252 10.9328
2 5.71267 0.00449576 10.9834
2 10.0163 17.3659 10.9912
2 14.3148 14.8772 10.9996
2 1.57868 7.45961 10.8594
2 5.72874 4.9633 10.9872
2 10.0118 2.48135 10.9895
2 14.3031 19.8302 10.9822
2 1.42927 12.3755 10.9994
2 5.7437 9.93702 10.9867
2 10.0135 7.43994 11.0042
2 14.2819 4.95715 10.9987
2 1.42704 17.351 10.9816
2 5.73043 14.8865 10.9847
2 10.021 12.4068 11.0012
2 14.3141 9.91223 11.0155
2 1.43008 2.48649 4.16688
2 5.72088 19.8348 4.18394
2 10.0141 17.365 4.19609
2 14.3106 14.8884 4.20432
2 1.45028 7.44706 4.21415
2 5.73417 4.95848 4.19441
2 10.0117 2.47453 4.19144
2 14.3129 0.00132876 4.18322
2 1.43643 12.4088 4.19827
2 5.75097 9.93406 4.20305
2 10.0284 7.43847 4.2127
2 14.302 4.94929 4.20565
2 1.43266 17.3581 4.18125
2 5.73119 14.8832 4.18795
2 10.0158 12.4129 4.21142
2 14.3017 9.94136 4.23258
2 1.43497 2.45517 7.1003
2 5.72413 19.828 7.11983
2 10.0179 17.3628 7.13061
2 14.3115 14.8816 7.1394
2 1.44972 7.45499 7.12587
2 5.72942 4.95704 7.12868
2 10.0118 2.47872 7.12769
2 14.3084 19.8315 7.11972
2 1.43609 12.4068 7.13195
2 5.75153 9.92565 7.12908
2 10.0292 7.44189 7.14628
2 14.3036 4.95464 7.13097
2 1.42862 17.3398 7.11485
2 5.73423 14.8777 7.1217
2 10.0304 12.4047 7.14416
2 14.3269 9.91819 7.16667
97
701
98
