LAMMPS (28 Jun 2014)
Running on 21 partitions of processors
Step MaxReplicaForce MaxAtomForce GradV0 GradV1 GradVc EBF EBR RDT RD1 PE1 RD2 PE2 ... RDN PEN
0    79.155306    16.776881    79.155306    79.147605    78.303397    0.1983283   0.20262127    2.7367837            0   -14778.347         0.05   -14779.258          0.1   -14779.882         0.15   -14780.222          0.2    -14780.28         0.25   -14780.079          0.3   -14779.673         0.35   -14779.156          0.4   -14778.651         0.45   -14778.283          0.5   -14778.148         0.55   -14778.283          0.6   -14778.651         0.65   -14779.157          0.7   -14779.674         0.75   -14780.081          0.8   -14780.282         0.85   -14780.224          0.9   -14779.885         0.95   -14779.261            1   -14778.351 
100   0.30360236  0.042224473   0.28373247   0.28395103   0.30192962    1.3804379    1.3803677    3.2255552            0   -14850.762  0.045863944   -14850.734  0.091613439    -14850.65   0.13709582   -14850.502   0.18338691   -14850.309   0.23152875   -14850.095   0.28161155   -14849.881   0.33373421   -14849.685   0.38787477   -14849.525   0.44353927   -14849.419   0.49998271   -14849.382    0.5564256   -14849.419   0.61208874   -14849.525   0.66622756   -14849.685    0.7183493   -14849.881   0.76843389   -14850.095   0.81658009   -14850.309   0.86287626   -14850.501   0.90836669    -14850.65   0.95412743   -14850.733            1   -14850.762 
200  0.047455299 0.0065606001  0.033200976  0.033205774  0.046394677    1.3791828    1.3790008    3.3457431            0   -14850.772  0.050892979   -14850.753   0.10139855   -14850.671   0.15156329   -14850.504   0.20148375   -14850.286   0.25125709   -14850.057    0.3009751   -14849.842   0.35069095   -14849.657   0.40043029   -14849.514   0.45020041   -14849.424   0.49998847   -14849.393   0.54977682   -14849.424   0.59954777   -14849.514   0.64928839   -14849.657   0.69900604   -14849.842   0.74872643   -14850.056   0.79850262   -14850.286    0.8484262   -14850.503   0.89859427   -14850.671   0.94910342   -14850.753            1   -14850.772 
300   0.15884198  0.013726312 0.0029744455 0.0029736165  0.013460255    1.3796929    1.3795763    3.4140579            0   -14850.774  0.050610067    -14850.76   0.10106945   -14850.691   0.15139636   -14850.533   0.20147168   -14850.314   0.25147888   -14850.079   0.30138659   -14849.858   0.35115434   -14849.667   0.40081983   -14849.519   0.45042107   -14849.426   0.49999478   -14849.394   0.54956863   -14849.426   0.59917026   -14849.519   0.64883646   -14849.667   0.69860482   -14849.858   0.74851354   -14850.079   0.79852161   -14850.314   0.84859884   -14850.532   0.89892761   -14850.691   0.94938855    -14850.76            1   -14850.774 
400  0.019502754 0.0021283682 0.0012989796 0.0012844362 0.0085315837    1.3793811    1.3793406    3.4256211            0   -14850.774  0.050405786   -14850.761   0.10072736   -14850.695   0.15094136   -14850.539   0.20104226   -14850.321   0.25103779   -14850.085   0.30094121   -14849.863   0.35077157    -14849.67   0.40054506   -14849.521   0.45028049   -14849.427   0.49999634   -14849.394   0.54971229   -14849.427   0.59944799   -14849.521   0.64922195    -14849.67   0.69905292   -14849.863   0.74895714   -14850.085   0.79895352   -14850.321   0.84905537   -14850.539   0.89927036   -14850.695   0.94959301   -14850.761            1   -14850.774 
500  0.033053108 0.0027832205 0.00033264842 0.00032898711 0.0043909544    1.3791537    1.3790309    3.4378109            0   -14850.774   0.05021351   -14850.762   0.10038507   -14850.698   0.15049766   -14850.545   0.20055295   -14850.328   0.25055042   -14850.091    0.3005002   -14849.867    0.3504102   -14849.673   0.40028959   -14849.523   0.45014868   -14849.427   0.49999773   -14849.395   0.54984683   -14849.427   0.59970607   -14849.523   0.64958573   -14849.673   0.69949601   -14849.867   0.74944624   -14850.091   0.79944429   -14850.328   0.84950014   -14850.545   0.89961344   -14850.698   0.94978567   -14850.762            1   -14850.774 
600 0.0021448871 0.00040681608 5.9445325e-05 5.606121e-05 0.0018535893    1.3791532    1.3790964    3.4455404            0   -14850.774  0.050088935   -14850.762   0.10015984     -14850.7   0.15020737    -14850.55   0.20023107   -14850.333   0.25023115   -14850.095    0.3002102    -14849.87   0.35017235   -14849.676   0.40012179   -14849.524   0.45006248   -14849.428   0.49999872   -14849.395   0.54993498   -14849.428   0.59987574   -14849.524   0.64982533   -14849.675   0.69978775    -14849.87   0.74976707   -14850.095   0.79976739   -14850.333   0.84979129   -14850.549   0.89983939     -14850.7   0.94991083   -14850.762            1   -14850.774 
700 0.0042694861 0.00035938985 0.00020359964 0.00015640338 0.00085168031     1.379148    1.3790317    3.4482636            0   -14850.774  0.050043751   -14850.762   0.10007882   -14850.701   0.15010249   -14850.551   0.20011387   -14850.335    0.2501137   -14850.097    0.3001034   -14849.871   0.35008477   -14849.676   0.40005978   -14849.524   0.45003051   -14849.428    0.4999991   -14849.395    0.5499677   -14849.428   0.59993851   -14849.524   0.64991363   -14849.676   0.69989516   -14849.871   0.74988502   -14850.097   0.79988503   -14850.335   0.84989664   -14850.551    0.8999205   -14850.701   0.94995589   -14850.762            1   -14850.774 
719 0.00090395568 0.00016616432 4.2607791e-05 4.0837937e-05 0.00075606635    1.3791848    1.3790951    3.4486619            0   -14850.774  0.050036705   -14850.762   0.10006634   -14850.701   0.15008633   -14850.551   0.20009608   -14850.335   0.25009602   -14850.097    0.3000873   -14849.871   0.35007157   -14849.676   0.40005046   -14849.524   0.45002572   -14849.428   0.49999913   -14849.395   0.54997256   -14849.428   0.59994788   -14849.524   0.64992685   -14849.676   0.69991122   -14849.871   0.74990265   -14850.097   0.79990273   -14850.335   0.84991266   -14850.551   0.89993289   -14850.701   0.94996283   -14850.762            1   -14850.774 
Climbing replica = 11
Step MaxReplicaForce MaxAtomForce GradV0 GradV1 GradVc EBF EBR RDT RD1 PE1 RD2 PE2 ... RDN PEN
719 0.00090395568 0.00016616432 4.2607791e-05 4.0837937e-05 0.00075606635    1.3791848    1.3790951    3.4486619            0   -14850.774  0.050036705   -14850.762   0.10006634   -14850.701   0.15008633   -14850.551   0.20009608   -14850.335   0.25009602   -14850.097    0.3000873   -14849.871   0.35007157   -14849.676   0.40005046   -14849.524   0.45002572   -14849.428   0.49999913   -14849.395   0.54997256   -14849.428   0.59994788   -14849.524   0.64992685   -14849.676   0.69991122   -14849.871   0.74990265   -14850.097   0.79990273   -14850.335   0.84991266   -14850.551   0.89993289   -14850.701   0.94996283   -14850.762            1   -14850.774 
720 0.00090395568 0.00016616432 4.2607791e-05 4.0837937e-05 0.00075606635    1.3791848    1.3790951    3.4486619            0   -14850.774  0.050036705   -14850.762   0.10006634   -14850.701   0.15008633   -14850.551   0.20009608   -14850.335   0.25009602   -14850.097    0.3000873   -14849.871   0.35007157   -14849.676   0.40005046   -14849.524   0.45002572   -14849.428   0.49999913   -14849.395   0.54997256   -14849.428   0.59994788   -14849.524   0.64992685   -14849.676   0.69991122   -14849.871   0.74990265   -14850.097   0.79990273   -14850.335   0.84991266   -14850.551   0.89993289   -14850.701   0.94996283   -14850.762            1   -14850.774 
