479
Atoms. Timestep: 0
1 1.314 19.0766 3.398
1 5.609 16.5976 3.398
1 9.903 14.1176 3.398
1 14.198 11.6386 3.398
1 1.314 4.2 3.398
1 5.609 1.721 3.398
1 9.903 19.0766 3.398
1 14.198 16.5976 3.398
1 1.314 9.159 3.398
1 5.609 6.68 3.398
1 9.903 4.2 3.398
1 14.198 1.721 3.398
1 1.314 14.118 3.398
1 5.609 11.639 3.398
1 9.903 9.159 3.398
1 14.198 6.68 3.398
1 0 1.517 3.398
1 4.295 18.8736 3.398
1 8.589 16.3946 3.398
1 12.884 13.9146 3.398
1 0 6.476 3.398
1 4.295 3.997 3.398
1 8.589 1.517 3.398
1 12.884 18.8736 3.398
1 0 11.435 3.398
1 4.295 8.956 3.398
1 8.589 6.476 3.398
1 12.884 3.997 3.398
1 0 16.394 3.398
1 4.295 13.915 3.398
1 8.589 11.435 3.398
1 12.884 8.956 3.398
1 2.98 1.721 3.398
1 7.275 19.0766 3.398
1 11.569 16.5976 3.398
1 15.864 14.1176 3.398
1 2.98 6.68 3.398
1 7.275 4.2 3.398
1 11.569 1.721 3.398
1 15.864 19.0766 3.398
1 2.98 11.639 3.398
1 7.275 9.159 3.398
1 11.569 6.68 3.398
1 15.864 4.2 3.398
1 2.98 16.597 3.398
1 7.275 14.118 3.398
1 11.569 11.639 3.398
1 15.864 9.159 3.398
1 2.98 18.1146 10.195
1 7.275 15.6356 10.195
1 11.569 13.1556 10.195
1 15.864 10.6766 10.195
1 2.98 3.238 10.195
1 7.275 0.759 10.195
1 11.569 18.1146 10.195
1 15.864 15.6356 10.195
1 2.98 8.197 10.195
1 7.275 5.718 10.195
1 11.569 3.238 10.195
1 15.864 0.759 10.195
1 2.98 13.156 10.195
1 7.275 10.677 10.195
1 11.569 8.197 10.195
1 15.864 5.718 10.195
1 0.6444 3.6912 11.2142
1 4.295 0.962 10.195
1 8.589 18.3186 10.195
1 12.884 15.8386 10.195
1 0 8.4 10.195
1 4.295 5.921 10.195
1 8.589 3.441 10.195
1 12.884 0.962 10.195
1 0 13.359 10.195
1 4.295 10.88 10.195
1 8.589 8.4 10.195
1 12.884 5.921 10.195
1 0 18.318 10.195
1 4.295 15.839 10.195
1 8.589 13.359 10.195
1 12.884 10.88 10.195
1 1.314 0.759 10.195
1 5.609 18.1146 10.195
1 9.903 15.6356 10.195
1 14.198 13.1556 10.195
1 1.314 5.718 10.195
1 5.609 3.238 10.195
1 9.903 0.759 10.195
1 14.198 18.1146 10.195
1 1.314 10.677 10.195
1 5.609 8.197 10.195
1 9.903 5.718 10.195
1 14.198 3.238 10.195
1 1.314 15.635 10.195
1 5.609 13.156 10.195
1 9.903 10.677 10.195
1 14.198 8.197 10.195
1 4.177 19.0766 7.929
1 8.472 16.5976 7.929
1 12.766 14.1176 7.929
1 17.061 11.6386 7.929
1 4.177 4.2 7.929
1 8.472 1.721 7.929
1 12.766 19.0766 7.929
1 17.061 16.5976 7.929
1 4.177 9.159 7.929
1 8.472 6.68 7.929
1 12.766 4.2 7.929
1 17.061 1.721 7.929
1 4.177 14.118 7.929
1 8.472 11.639 7.929
1 12.766 9.159 7.929
1 17.061 6.68 7.929
1 2.863 1.517 7.929
1 7.158 18.8736 7.929
1 11.452 16.3946 7.929
1 15.747 13.9146 7.929
1 2.863 6.476 7.929
1 7.158 3.997 7.929
1 11.452 1.517 7.929
1 15.747 18.8736 7.929
1 2.863 11.435 7.929
1 7.158 8.956 7.929
1 11.452 6.476 7.929
1 15.747 3.997 7.929
1 2.863 16.394 7.929
1 7.158 13.915 7.929
1 11.452 11.435 7.929
1 15.747 8.956 7.929
1 1.549 19.0766 7.929
1 5.843 16.5976 7.929
1 10.138 14.1176 7.929
1 14.432 11.6386 7.929
1 1.549 4.2 7.929
1 5.843 1.721 7.929
1 10.138 19.0766 7.929
1 14.432 16.5976 7.929
1 1.549 9.159 7.929
1 5.843 6.68 7.929
1 10.138 4.2 7.929
1 14.432 1.721 7.929
1 1.549 14.118 7.929
1 5.843 11.639 7.929
1 10.138 9.159 7.929
1 14.432 6.68 7.929
1 1.549 0.759 1.133
1 5.843 18.1146 1.133
1 10.138 15.6356 1.133
1 14.432 13.1556 1.133
1 1.549 5.718 1.133
1 5.843 3.238 1.133
1 10.138 0.759 1.133
1 14.432 18.1146 1.133
1 1.549 10.677 1.133
1 5.843 8.197 1.133
1 10.138 5.718 1.133
1 14.432 3.238 1.133
1 1.549 15.635 1.133
1 5.843 13.156 1.133
1 10.138 10.677 1.133
1 14.432 8.197 1.133
1 2.863 18.3186 1.133
1 7.158 15.8386 1.133
1 11.452 13.3596 1.133
1 15.747 10.8796 1.133
1 2.863 3.441 1.133
1 7.158 0.962 1.133
1 11.452 18.3186 1.133
1 15.747 15.8386 1.133
1 2.863 8.4 1.133
1 7.158 5.921 1.133
1 11.452 3.441 1.133
1 15.747 0.962 1.133
1 2.863 13.359 1.133
1 7.158 10.88 1.133
1 11.452 8.4 1.133
1 15.747 5.921 1.133
1 4.177 0.759 1.133
1 8.472 18.1146 1.133
1 12.766 15.6356 1.133
1 17.061 13.1556 1.133
1 4.177 5.718 1.133
1 8.472 3.238 1.133
1 12.766 0.759 1.133
1 17.061 18.1146 1.133
1 4.177 10.677 1.133
1 8.472 8.197 1.133
1 12.766 5.718 1.133
1 17.061 3.238 1.133
1 4.177 15.635 1.133
1 8.472 13.156 1.133
1 12.766 10.677 1.133
1 17.061 8.197 1.133
1 2.746 1.721 12.46
1 7.04 19.0766 12.46
1 11.335 16.5976 12.46
1 15.629 14.1176 12.46
1 2.746 6.68 12.46
1 7.04 4.2 12.46
1 11.335 1.721 12.46
1 15.629 19.0766 12.46
1 2.746 11.639 12.46
1 7.04 9.159 12.46
1 11.335 6.68 12.46
1 15.629 4.2 12.46
1 2.746 16.597 12.46
1 7.04 14.118 12.46
1 11.335 11.639 12.46
1 15.629 9.159 12.46
1 5.726 1.517 12.46
1 10.021 18.8736 12.46
1 14.315 16.3946 12.46
1 1.432 8.956 12.46
1 5.726 6.476 12.46
1 10.021 3.997 12.46
1 14.315 1.517 12.46
1 1.432 13.915 12.46
1 5.726 11.435 12.46
1 10.021 8.956 12.46
1 14.315 6.476 12.46
1 1.432 18.874 12.46
1 5.726 16.394 12.46
1 10.021 13.915 12.46
1 14.315 11.435 12.46
1 0.117 1.721 12.46
1 4.412 19.0766 12.46
1 8.706 16.5976 12.46
1 13.001 14.1176 12.46
1 0.117 6.68 12.46
1 4.412 4.2 12.46
1 8.706 1.721 12.46
1 13.001 19.0766 12.46
1 0.117 11.639 12.46
1 4.412 9.159 12.46
1 8.706 6.68 12.46
1 13.001 4.2 12.46
1 0.117 16.597 12.46
1 4.412 14.118 12.46
1 8.706 11.639 12.46
1 13.001 9.159 12.46
1 0.117 3.238 5.664
1 4.412 0.759 5.664
1 8.706 18.1146 5.664
1 13.001 15.6356 5.664
1 0.117 8.197 5.664
1 4.412 5.718 5.664
1 8.706 3.238 5.664
1 13.001 0.759 5.664
1 0.117 13.156 5.664
1 4.412 10.677 5.664
1 8.706 8.197 5.664
1 13.001 5.718 5.664
1 0.117 18.115 5.664
1 4.412 15.635 5.664
1 8.706 13.156 5.664
1 13.001 10.677 5.664
1 1.432 0.962 5.664
1 5.726 18.3186 5.664
1 10.021 15.8386 5.664
1 14.315 13.3596 5.664
1 1.432 5.921 5.664
1 5.726 3.441 5.664
1 10.021 0.962 5.664
1 14.315 18.3186 5.664
1 1.432 10.88 5.664
1 5.726 8.4 5.664
1 10.021 5.921 5.664
1 14.315 3.441 5.664
1 1.432 15.839 5.664
1 5.726 13.359 5.664
1 10.021 10.88 5.664
1 14.315 8.4 5.664
1 2.746 3.238 5.664
1 7.04 0.759 5.664
1 11.335 18.1146 5.664
1 15.629 15.6356 5.664
1 2.746 8.197 5.664
1 7.04 5.718 5.664
1 11.335 3.238 5.664
1 15.629 0.759 5.664
1 2.746 13.156 5.664
1 7.04 10.677 5.664
1 11.335 8.197 5.664
1 15.629 5.718 5.664
1 2.746 18.115 5.664
1 7.04 15.635 5.664
1 11.335 13.156 5.664
1 15.629 10.677 5.664
2 0 0 4.724
2 4.295 17.3566 4.724
2 8.589 14.8766 4.724
2 12.884 12.3976 4.724
2 0 4.959 4.724
2 4.295 2.479 4.724
2 8.589 0 4.724
2 12.884 17.3566 4.724
2 0 9.918 4.724
2 4.295 7.438 4.724
2 8.589 4.959 4.724
2 12.884 2.479 4.724
2 0 14.877 4.724
2 4.295 12.397 4.724
2 8.589 9.918 4.724
2 12.884 7.438 4.724
2 0 0 2.073
2 4.295 17.3566 2.073
2 8.589 14.8766 2.073
2 12.884 12.3976 2.073
2 0 4.959 2.073
2 4.295 2.479 2.073
2 8.589 0 2.073
2 12.884 17.3566 2.073
2 0 9.918 2.073
2 4.295 7.438 2.073
2 8.589 4.959 2.073
2 12.884 2.479 2.073
2 0 14.877 2.073
2 4.295 12.397 2.073
2 8.589 9.918 2.073
2 12.884 7.438 2.073
2 0 0 8.869
2 4.295 17.3566 8.869
2 8.589 14.8766 8.869
2 12.884 12.3976 8.869
2 0 4.959 8.869
2 4.295 2.479 8.869
2 8.589 0 8.869
2 12.884 17.3566 8.869
2 0 9.918 8.869
2 4.295 7.438 8.869
2 8.589 4.959 8.869
2 12.884 2.479 8.869
2 0 14.877 8.869
2 4.295 12.397 8.869
2 8.589 9.918 8.869
2 12.884 7.438 8.869
2 0 0 11.52
2 4.295 17.3566 11.52
2 8.589 14.8766 11.52
2 12.884 12.3976 11.52
2 0 4.959 11.52
2 4.295 2.479 11.52
2 8.589 0 11.52
2 12.884 17.3566 11.52
2 0 9.918 11.52
2 4.295 7.438 11.52
2 8.589 4.959 11.52
2 12.884 2.479 11.52
2 0 14.877 11.52
2 4.295 12.397 11.52
2 8.589 9.918 11.52
2 12.884 7.438 11.52
2 2.863 0 9.255
2 7.158 17.3566 9.255
2 11.452 14.8766 9.255
2 15.747 12.3976 9.255
2 2.863 4.959 9.255
2 7.158 2.479 9.255
2 11.452 0 9.255
2 15.747 17.3566 9.255
2 2.863 9.918 9.255
2 7.158 7.438 9.255
2 11.452 4.959 9.255
2 15.747 2.479 9.255
2 2.863 14.877 9.255
2 7.158 12.397 9.255
2 11.452 9.918 9.255
2 15.747 7.438 9.255
2 2.863 0 6.604
2 7.158 17.3566 6.604
2 11.452 14.8766 6.604
2 15.747 12.3976 6.604
2 2.863 4.959 6.604
2 7.158 2.479 6.604
2 11.452 0 6.604
2 15.747 17.3566 6.604
2 2.863 9.918 6.604
2 7.158 7.438 6.604
2 11.452 4.959 6.604
2 15.747 2.479 6.604
2 2.863 14.877 6.604
2 7.158 12.397 6.604
2 11.452 9.918 6.604
2 15.747 7.438 6.604
2 2.863 0 13.401
2 7.158 17.3566 13.401
2 11.452 14.8766 13.401
2 15.747 12.3976 13.401
2 2.863 4.959 13.401
2 7.158 2.479 13.401
2 11.452 0 13.401
2 15.747 17.3566 13.401
2 2.863 9.918 13.401
2 7.158 7.438 13.401
2 11.452 4.959 13.401
2 15.747 2.479 13.401
2 2.863 14.877 13.401
2 7.158 12.397 13.401
2 11.452 9.918 13.401
2 15.747 7.438 13.401
2 2.863 0 2.458
2 7.158 17.3566 2.458
2 11.452 14.8766 2.458
2 15.747 12.3976 2.458
2 2.863 4.959 2.458
2 7.158 2.479 2.458
2 11.452 0 2.458
2 15.747 17.3566 2.458
2 2.863 9.918 2.458
2 7.158 7.438 2.458
2 11.452 4.959 2.458
2 15.747 2.479 2.458
2 2.863 14.877 2.458
2 7.158 12.397 2.458
2 11.452 9.918 2.458
2 15.747 7.438 2.458
2 1.432 2.479 0.193
2 5.726 0 0.193
2 10.021 17.3566 0.193
2 14.315 14.8766 0.193
2 1.432 7.438 0.193
2 5.726 4.959 0.193
2 10.021 2.479 0.193
2 14.315 0 0.193
2 1.432 12.397 0.193
2 5.726 9.918 0.193
2 10.021 7.438 0.193
2 14.315 4.959 0.193
2 1.432 17.356 0.193
2 5.726 14.877 0.193
2 10.021 12.397 0.193
2 14.315 9.918 0.193
2 1.432 2.479 11.135
2 5.726 0 11.135
2 10.021 17.3566 11.135
2 14.315 14.8766 11.135
2 1.432 7.438 11.135
2 5.726 4.959 11.135
2 10.021 2.479 11.135
2 14.315 0 11.135
2 1.432 12.397 11.135
2 5.726 9.918 11.135
2 10.021 7.438 11.135
2 14.315 4.959 11.135
2 1.432 17.356 11.135
2 5.726 14.877 11.135
2 10.021 12.397 11.135
2 14.315 9.918 11.135
2 1.432 2.479 4.338
2 5.726 0 4.338
2 10.021 17.3566 4.338
2 14.315 14.8766 4.338
2 1.432 7.438 4.338
2 5.726 4.959 4.338
2 10.021 2.479 4.338
2 14.315 0 4.338
2 1.432 12.397 4.338
2 5.726 9.918 4.338
2 10.021 7.438 4.338
2 14.315 4.959 4.338
2 1.432 17.356 4.338
2 5.726 14.877 4.338
2 10.021 12.397 4.338
2 14.315 9.918 4.338
2 1.432 2.479 6.989
2 5.726 0 6.989
2 10.021 17.3566 6.989
2 14.315 14.8766 6.989
2 1.432 7.438 6.989
2 5.726 4.959 6.989
2 10.021 2.479 6.989
2 14.315 0 6.989
2 1.432 12.397 6.989
2 5.726 9.918 6.989
2 10.021 7.438 6.989
2 14.315 4.959 6.989
2 1.432 17.356 6.989
2 5.726 14.877 6.989
2 10.021 12.397 6.989
2 14.315 9.918479
447479
Atoms. Timestep: 719
1 1.29262 19.0865 3.42739
1 5.59234 16.6136 3.39793
1 9.88599 14.1296 3.40269
1 14.1776 11.647 3.40003
1 1.29849 4.21317 3.37995
1 5.58248 1.73341 3.40036
1 9.88818 19.0925 3.39718
1 14.1815 16.6079 3.41238
1 1.30051 9.17572 3.37084
1 5.58072 6.68572 3.38674
1 9.88648 4.20481 3.3896
1 14.1929 1.73533 3.39435
1 1.29733 14.1294 3.39571
1 5.59184 11.6492 3.38735
1 9.88622 9.16301 3.39509
1 14.1991 6.68154 3.39307
1 0.00139366 1.51318 3.40128
1 4.29001 18.8591 3.4136
1 8.59119 16.3793 3.40083
1 12.8802 13.8945 3.40376
1 0.00459477 6.45258 3.37951
1 4.28443 3.97552 3.39258
1 8.5889 1.50312 3.39947
1 12.8903 18.8582 3.39496
1 -0.0021035 11.4157 3.39534
1 4.28815 8.92879 3.38798
1 8.5882 6.45037 3.39377
1 12.8896 3.97873 3.38233
1 -0.00097004 16.375 3.40943
1 4.29658 13.897 3.39645
1 8.58736 11.4109 3.39462
1 12.8852 8.92732 3.39016
1 2.98295 1.73644 3.40489
1 7.29371 19.0921 3.40735
1 11.589 16.6127 3.40268
1 15.88 14.1291 3.40235
1 2.97459 6.68352 3.37614
1 7.28854 4.20434 3.402
1 11.5941 1.73557 3.39886
1 15.8864 19.0881 3.39705
1 2.99758 11.652 3.3855
1 7.28746 9.16414 3.39148
1 11.5956 6.68303 3.39703
1 15.8878 4.20958 3.39347
1 2.99865 16.6089 3.40151
1 7.29274 14.131 3.39242
1 11.5838 11.647 3.40119
1 15.8766 9.17062 3.39665
1 2.99668 18.1055 10.2022
1 7.29514 15.6225 10.1941
1 11.5878 13.1439 10.1983
1 15.8824 10.6606 10.1926
1 2.96898 3.19984 10.1997
1 7.28891 0.747616 10.2
1 11.5903 18.1023 10.2036
1 15.8831 15.6322 10.2046
1 2.98176 8.17702 10.1593
1 7.28037 5.70868 10.1898
1 11.5903 3.22759 10.171
1 15.8596 0.799907 10.18
1 2.99637 13.144 10.1862
1 7.28849 10.6611 10.1873
1 11.5911 8.1777 10.1858
1 15.9631 5.555 10.1516
1 1.36973 3.94647 12.2686
1 4.29052 0.985253 10.2335
1 8.59321 18.3405 10.1984
1 12.889 15.8624 10.1982
1 -0.0114799 8.38617 10.1728
1 4.26544 5.92685 10.191
1 8.58409 3.46248 10.1955
1 12.8883 0.994403 10.1749
1 -8.75939e-05 13.3797 10.1938
1 4.29308 10.8935 10.1819
1 8.58367 8.41689 10.1889
1 12.8923 5.92861 10.1788
1 0.00115502 18.3762 10.2127
1 4.29664 15.8575 10.1944
1 8.59017 13.3756 10.1916
1 12.8823 10.8943 10.1935
1 1.3203 0.789072 10.2269
1 5.5958 18.0971 10.1929
1 9.88939 15.6233 10.1997
1 14.1806 13.1458 10.2027
1 1.20972 5.62953 10.1832
1 5.58417 3.22419 10.2143
1 9.89235 0.750944 10.1948
1 14.1892 18.1125 10.2042
1 1.28914 10.656 10.183
1 5.57706 8.1734 10.1929
1 9.87967 5.71129 10.1918
1 14.2127 3.20914 10.1597
1 1.29761 15.6297 10.1974
1 5.59093 13.1416 10.1888
1 9.88375 10.6619 10.1946
1 14.1875 8.17515 10.2032
1 4.15765 19.0927 7.9466
1 8.45467 16.6059 7.93367
1 12.7499 14.1299 7.9371
1 17.0426 11.6542 7.92237
1 4.11387 4.20863 7.92424
1 8.43191 1.73019 7.92903
1 12.7365 19.0842 7.93331
1 17.0419 16.6237 7.94816
1 4.15082 9.16219 7.91043
1 8.44353 6.68187 7.92126
1 12.7403 4.19987 7.9142
1 17.0033 1.77255 8.0302
1 4.16118 14.1309 7.92326
1 8.45429 11.6433 7.9262
1 12.7513 9.15818 7.92581
1 17.0342 6.74855 7.86871
1 2.8524 1.49578 7.94132
1 7.1565 18.8555 7.93328
1 11.4534 16.3742 7.93537
1 15.745 13.9016 7.93604
1 2.81742 6.43351 7.92089
1 7.13861 3.97463 7.93282
1 11.4099 1.49683 7.91046
1 15.7452 18.8873 7.94508
1 2.86562 11.418 7.9179
1 7.15049 8.92546 7.92664
1 11.4476 6.44884 7.92617
1 15.7565 3.95598 7.98613
1 2.8654 16.3791 7.93308
1 7.15866 13.8905 7.92703
1 11.452 11.4082 7.93116
1 15.7283 8.94725 7.92839
1 1.56468 19.0952 7.94946
1 5.86417 16.6051 7.92496
1 10.1564 14.1258 7.93005
1 14.4464 11.6547 7.93092
1 1.453 4.16417 8.0351
1 5.8402 1.73113 7.93831
1 10.1501 19.0804 7.9334
1 14.4557 16.6201 7.93304
1 1.56064 9.18351 7.90811
1 5.83745 6.67785 7.92577
1 10.1485 4.20438 7.92867
1 14.3894 1.72423 7.88948
1 1.56553 14.134 7.92858
1 5.85836 11.644 7.92014
1 10.1526 9.16268 7.92643
1 14.4707 6.66901 7.96664
1 1.56098 0.740105 1.17026
1 5.86699 18.11 1.14325
1 10.1568 15.6285 1.13756
1 14.4474 13.1451 1.13873
1 1.54086 5.67971 1.04758
1 5.85744 3.229 1.13578
1 10.1699 0.756289 1.13788
1 14.4549 18.1083 1.14242
1 1.56679 10.6647 1.11458
1 5.85633 8.18179 1.11811
1 10.1624 5.70609 1.13008
1 14.472 3.23931 1.10777
1 1.56552 15.6236 1.13686
1 5.86064 13.145 1.12458
1 10.1527 10.6631 1.12883
1 14.4512 8.18241 1.11694
1 2.87002 18.337 1.13707
1 7.16116 15.8619 1.12945
1 11.45 13.3806 1.13476
1 15.7424 10.8999 1.1312
1 2.83823 3.45479 1.10806
1 7.17214 0.987462 1.14533
1 11.4597 18.3466 1.13299
1 15.7462 15.8586 1.14
1 2.85831 8.40376 1.10924
1 7.15635 5.93651 1.13233
1 11.4675 3.4668 1.11994
1 15.7695 0.9907 1.12763
1 2.86545 13.3778 1.12515
1 7.15576 10.8962 1.12495
1 11.449 8.41642 1.127
1 15.7526 5.92439 1.09263
1 4.16477 0.743364 1.13993
1 8.46107 18.1103 1.13738
1 12.751 15.6279 1.14233
1 17.0426 13.144 1.13191
1 4.14467 5.69894 1.12092
1 8.46163 3.23152 1.12317
1 12.7684 0.758128 1.13412
1 17.0485 18.0989 1.14137
1 4.15575 10.6593 1.12485
1 8.45098 8.18419 1.12875
1 12.7591 5.71596 1.11411
1 17.0642 3.23195 1.10612
1 4.16244 15.6241 1.1324
1 8.45394 13.1449 1.1337
1 12.7443 10.6677 1.13835
1 17.0341 8.19308 1.13634
1 2.77563 1.72349 12.5055
1 7.03362 19.0796 12.4632
1 11.32 16.6082 12.4685
1 15.6123 14.132 12.4647
1 2.69596 6.66373 12.4062
1 7.0167 4.20499 12.4636
1 11.335 1.73246 12.4577
1 15.6166 19.0915 12.4692
1 2.72764 11.6512 12.4456
1 7.01698 9.16461 12.4515
1 11.3283 6.68124 12.4489
1 15.6915 4.17138 12.3578
1 2.7287 16.6092 12.4627
1 7.02363 14.1252 12.4559
1 11.3157 11.6452 12.4599
1 15.6072 9.18621 12.4562
1 5.76691 1.49362 12.4826
1 10.0275 18.8564 12.4644
1 14.3145 16.3787 12.4698
1 1.43847 8.94071 12.434
1 5.7142 6.44603 12.4524
1 10.0296 3.97626 12.4494
1 14.3298 1.5 12.4519
1 1.43108 13.898 12.4606
1 5.72041 11.4085 12.4549
1 10.0174 8.92765 12.4528
1 14.353 6.43587 12.4276
1 1.44459 18.8704 12.4724
1 5.72981 16.3714 12.4628
1 10.0201 13.8927 12.4631
1 14.3069 11.4194 12.4653
1 0.180974 1.73197 12.4193
1 4.4489 19.0763 12.466
1 8.729 16.6067 12.4606
1 13.017 14.1322 12.4663
1 0.115004 6.74741 12.4675
1 4.41611 4.19448 12.4572
1 8.74388 1.7303 12.4643
1 13.0258 19.0967 12.4555
1 0.132119 11.6519 12.4549
1 4.41673 9.15943 12.4447
1 8.72066 6.68389 12.4603
1 13.0486 4.2066 12.4438
1 0.138781 16.6186 12.4619
1 4.42994 14.1277 12.4528
1 8.7199 11.646 12.4557
1 13.0185 9.16392 12.4612
1 0.117409 3.2395 5.66634
1 4.41007 0.757213 5.66743
1 8.72181 18.1095 5.66603
1 13.0193 15.6263 5.67347
1 0.141607 8.19723 5.62286
1 4.41808 5.7152 5.65461
1 8.71283 3.23144 5.67214
1 13.0139 0.744717 5.65248
1 0.134669 13.147 5.66502
1 4.42945 10.6691 5.64702
1 8.72115 8.182 5.66092
1 13.0269 5.70829 5.67086
1 0.131253 18.1042 5.68299
1 4.42978 15.6299 5.66281
1 8.72436 13.1435 5.6605
1 13.018 10.659 5.66518
1 1.40378 0.995053 5.70017
1 5.72227 18.346 5.67331
1 10.0219 15.8614 5.66908
1 14.3137 13.3784 5.66534
1 1.42048 5.92327 5.68145
1 5.70625 3.46588 5.67126
1 10.0065 0.987604 5.65764
1 14.3192 18.3476 5.67487
1 1.43431 10.9028 5.64827
1 5.7231 8.4171 5.65534
1 10.016 5.93536 5.65799
1 14.3199 3.46603 5.64706
1 1.43252 15.862 5.66686
1 5.72892 13.3809 5.65878
1 10.0189 10.8941 5.66184
1 14.3157 8.40706 5.65509
1 2.70561 3.24223 5.68102
1 7.0091 0.756042 5.66415
1 11.3181 18.1097 5.66316
1 15.6149 15.6245 5.67541
1 2.72163 8.18444 5.65279
1 7.01225 5.70518 5.65806
1 11.3131 3.23165 5.65427
1 15.6244 0.764739 5.65381
1 2.72952 13.1477 5.6586
1 7.02177 10.6619 5.65898
1 11.3151 8.1812 5.66014
1 15.6289 5.69586 5.69035
1 2.72554 18.1113 5.67467
1 7.02494 15.6273 5.66127
1 11.318 13.1426 5.67063
1 15.6085 10.6658 5.66345
2 0.00450548 -0.0211576 4.87496
2 4.29715 17.3564 4.87211
2 8.59194 14.8771 4.86625
2 12.8781 12.3971 4.87098
2 0.00697408 4.97519 4.83946
2 4.28717 2.4801 4.87027
2 8.57991 -0.00193331 4.86678
2 12.8811 17.351 4.87236
2 -0.00377206 9.94152 4.84975
2 4.30066 7.44868 4.85014
2 8.58176 4.95922 4.86303
2 12.8647 2.47321 4.854
2 -0.00316171 14.8733 4.87029
2 4.30027 12.4066 4.85504
2 8.58771 9.91695 4.86158
2 12.8758 7.4418 4.85966
2 -0.00601452 -0.0284981 1.95484
2 4.30522 17.3486 1.93641
2 8.58939 14.8772 1.93113
2 12.8756 12.4026 1.93759
2 -0.00478533 4.96732 1.91727
2 4.3056 2.47179 1.93128
2 8.60175 -0.000606094 1.93716
2 12.8819 17.354 1.9369
2 0.00150858 9.93363 1.92256
2 4.29514 7.44296 1.91514
2 8.59191 4.95958 1.9288
2 12.8899 2.48415 1.92052
2 0.00282375 14.8694 1.93461
2 4.29893 12.4004 1.92118
2 8.5855 9.91931 1.92571
2 12.8754 7.44582 1.92499
2 0.0162163 -0.0139981 8.75089
2 4.30655 17.3407 8.72692
2 8.59065 14.8702 8.72696
2 12.879 12.3998 8.73159
2 -0.0424529 5.10145 8.56538
2 4.28441 2.47617 8.7312
2 8.58692 -0.00435839 8.72849
2 12.8815 17.3483 8.73299
2 -0.000303155 9.93472 8.71086
2 4.27923 7.43234 8.71472
2 8.57499 4.95796 8.72458
2 12.7625 2.48199 8.69493
2 0.000608752 14.8775 8.7325
2 4.30079 12.4033 8.71708
2 8.5861 9.91671 8.72255
2 12.866 7.44136 8.7207
2 -0.00660667 -0.0294603 11.6815
2 4.30297 17.341 11.6641
2 8.59122 14.8729 11.663
2 12.8759 12.4054 11.6675
2 0.0037949 5.10514 11.7576
2 4.4108 2.47078 11.6917
2 8.59789 -0.00500666 11.6671
2 12.8806 17.3471 11.6712
2 -0.00707033 9.93309 11.6578
2 4.29411 7.44024 11.6516
2 8.58656 4.95865 11.6607
2 12.8873 2.46786 11.6591
2 -5.58891e-05 14.8765 11.6669
2 4.29646 12.3997 11.6526
2 8.58376 9.92063 11.6574
2 12.8847 7.43779 11.6551
2 2.88656 -0.0201108 9.39212
2 7.16801 17.3476 9.39506
2 11.4514 14.8751 9.40222
2 15.7412 12.4033 9.39843
2 2.83408 4.93995 9.41257
2 7.15678 2.47256 9.39859
2 11.4427 -0.0248292 9.39822
2 15.743 17.3544 9.40682
2 2.86677 9.93104 9.37362
2 7.15167 7.44319 9.38922
2 11.431 4.97786 9.39326
2 15.5214 2.34192 9.20372
2 2.86348 14.8746 9.39503
2 7.15983 12.3947 9.39137
2 11.4468 9.92208 9.39547
2 15.7185 7.48566 9.37566
2 2.86224 -0.000213293 6.46669
2 7.15939 17.3533 6.46178
2 11.45 14.8733 6.46685
2 15.7453 12.4023 6.4625
2 2.87551 4.9735 6.44619
2 7.13732 2.4788 6.46197
2 11.4305 -0.0009604 6.45661
2 15.7496 17.3467 6.47206
2 2.87182 9.94369 6.44071
2 7.15184 7.4378 6.45324
2 11.4343 4.95805 6.45066
2 15.7357 2.4853 6.34997
2 2.86962 14.8768 6.45936
2 7.15905 12.3951 6.45553
2 11.4439 9.91529 6.45854
2 15.751 7.46526 6.42797
2 2.90353 -0.0407546 13.2943
2 7.16462 17.3474 13.2603
2 11.4476 14.8757 13.2655
2 15.7465 12.4038 13.2587
2 2.86951 4.95392 13.2408
2 7.19382 2.47888 13.2789
2 11.4552 -0.00428996 13.2613
2 15.7439 17.3443 13.272
2 2.86595 9.92986 13.2412
2 7.15507 7.44139 13.2525
2 11.4506 4.96117 13.2474
2 15.7592 2.47628 13.2401
2 2.86935 14.8714 13.257
2 7.15629 12.3964 13.2533
2 11.4429 9.91754 13.2545
2 15.7201 7.48773 13.2784
2 2.86389 -0.0108388 2.62887
2 7.16396 17.3591 2.60368
2 11.4489 14.8792 2.60738
2 15.7388 12.4019 2.60219
2 2.87065 4.9579 2.59326
2 7.15903 2.47534 2.61113
2 11.4564 -0.000462551 2.60295
2 15.7427 17.3374 2.61226
2 2.86769 9.92918 2.58325
2 7.15824 7.43867 2.5946
2 11.4492 4.95976 2.59251
2 15.7487 2.476 2.5906
2 2.86623 14.8762 2.599
2 7.1603 12.4006 2.59492
2 11.4457 9.9226 2.59855
2 15.7451 7.45473 2.60193
2 1.43039 2.43533 0.43823
2 5.75468 -0.00395456 0.347345
2 10.0238 17.3557 0.340857
2 14.3086 14.8731 0.343488
2 1.4223 7.46051 0.318721
2 5.73568 4.95698 0.33717
2 10.0374 2.47792 0.335181
2 14.3211 -0.00382514 0.347318
2 1.43117 12.4031 0.3277
2 5.72764 9.92003 0.326461
2 10.0162 7.43921 0.333287
2 14.3036 4.96808 0.324537
2 1.43222 17.3442 0.345139
2 5.73057 14.8755 0.331578
2 10.0179 12.3983 0.335589
2 14.3 9.94449 0.339137
2 1.64979 2.34399 11.172
2 5.74243 -0.0307354 10.9999
2 10.0194 17.3483 11.0003
2 14.3161 14.8756 11.0003
2 1.44119 7.47686 10.9607
2 5.72466 4.97615 10.9846
2 10.0159 2.47811 10.9925
2 14.3013 -0.0121334 11.0123
2 1.43381 12.3991 10.9856
2 5.72318 9.91816 10.9831
2 10.0131 7.44495 10.9911
2 14.3126 4.93645 10.9565
2 1.44319 17.3467 11.0023
2 5.73264 14.8702 10.9886
2 10.0177 12.3956 10.9926
2 14.3069 9.93002 10.999
2 1.42689 2.4834 4.20783
2 5.72515 -0.000942059 4.20192
2 10.0203 17.3582 4.1996
2 14.3112 14.8714 4.20456
2 1.43222 7.4635 4.16237
2 5.72468 4.9608 4.19098
2 10.0152 2.47756 4.18562
2 14.3121 -0.00533668 4.18167
2 1.4378 12.4036 4.18878
2 5.72775 9.92491 4.18586
2 10.017 7.43773 4.19084
2 14.3091 4.95795 4.18128
2 1.43603 17.339 4.20747
2 5.73126 14.8805 4.19125
2 10.0163 12.3973 4.19654
2 14.3087 9.92279 4.19271
2 1.41869 2.47365 7.1561
2 5.72735 -0.00596368 7.13805
2 10.0199 17.3488 7.13587
2 14.3115 14.8762 7.13864
2 1.4487 7.48739 7.0801
2 5.71997 4.95825 7.12982
2 9.9806 2.4785 7.11143
2 14.2879 -0.0278149 7.10615
2 1.43004 12.4086 7.12535
2 5.72775 9.91693 7.12338
2 10.0092 7.43927 7.12566
2 14.2848 4.96591 7.12126
2 1.43536 17.3523 7.14074
2 5.73251 14.8737 7.12514
2 10.0197 12.39479
Atoms. Timestep: 479
Atom47479
A479
Atoms479
Ato479
Atoms. Timestep:479
At479
Atoms. Timestep: 720
1 1.29031 19.0801 3.43874
1 5.59268 16.6143 3.39724
1 9.88572 14.13 3.40264
1 14.1777 11.6459 3.40043
1 1.30764 4.21005 3.38373
1 5.58226 1.73275 3.39692
1 9.88806 19.0926 3.39854
1 14.1807 16.6063 3.41577
1 1.30161 9.17709 3.37019
1 5.58537 6.68827 3.3901
1 9.89015 4.20591 3.38942
1 14.1886 1.73267 3.40825
1 1.29744 14.1281 3.39601
1 5.59175 11.6486 3.38703
1 9.88724 9.16344 3.39572
1 14.2025 6.68084 3.39472
1 0.00323671 1.515 3.39805
1 4.29025 18.8616 3.41232
1 8.59127 16.3796 3.40069
1 12.8799 13.8939 3.40397
1 0.0167892 6.44795 3.37241
1 4.28081 3.97552 3.394
1 8.58973 1.50373 3.4007
1 12.8892 18.8576 3.39937
1 17.1761 11.4151 3.39573
1 4.28874 8.92673 3.38506
1 8.59539 6.45092 3.39837
1 12.8932 3.97751 3.38895
1 17.1764 16.372 3.41133
1 4.29684 13.8959 3.3966
1 8.58756 11.4114 3.39374
1 12.886 8.92712 3.39011
1 2.98336 1.74362 3.39469
1 7.29403 19.0931 3.4059
1 11.5884 16.6127 3.40336
1 15.8796 14.1279 3.40327
1 2.97591 6.67897 3.38706
1 7.29161 4.2062 3.40349
1 11.5939 1.73449 3.40112
1 15.8877 19.0834 3.40671
1 2.9969 11.6516 3.38509
1 7.28913 9.16399 3.39415
1 11.5995 6.68218 3.39733
1 15.8968 4.2028 3.38874
1 2.99995 16.6069 3.40171
1 7.29247 14.1312 3.39186
1 11.5839 11.6469 3.40177
1 15.8792 9.16808 3.39392
1 3.0008 18.0945 10.1985
1 7.29634 15.6233 10.1942
1 11.5867 13.1461 10.1988
1 15.8788 10.6696 10.1944
1 3.02751 3.18739 10.1841
1 7.29166 0.746661 10.2019
1 11.591 18.1034 10.204
1 15.8818 15.6294 10.2069
1 2.99364 8.18849 10.1653
1 7.27772 5.70864 10.1933
1 11.5904 3.22742 10.1685
1 15.8701 0.809717 10.1971
1 2.99726 13.1432 10.1869
1 7.2892 10.663 10.1866
1 11.585 8.18395 10.1879
1 15.9379 5.58314 10.1579
1 1.06088 3.83684 11.8345
1 4.2884 0.971135 10.2361
1 8.59498 18.3409 10.1996
1 12.8893 15.8636 10.1983
1 17.154 8.40816 10.1711
1 4.26454 5.92943 10.1956
1 8.58633 3.46348 10.1988
1 12.8934 0.996559 10.1801
1 17.1781 13.3796 10.1944
1 4.29654 10.8963 10.1818
1 8.58289 8.41824 10.1889
1 12.8742 5.93376 10.174
1 17.1749 18.3646 10.2226
1 4.3004 15.8534 10.191
1 8.59046 13.3771 10.1912
1 12.8807 10.8983 10.1928
1 1.32183 0.760271 10.2094
1 5.59758 18.0958 10.1931
1 9.89011 15.6242 10.1999
1 14.1789 13.1476 10.2028
1 1.2159 5.75915 10.0904
1 5.60276 3.22642 10.224
1 9.89461 0.751379 10.1953
1 14.1897 18.1136 10.2065
1 1.29171 10.6582 10.1841
1 5.58206 8.1725 10.1974
1 9.87396 5.71194 10.1918
1 14.2138 3.21577 10.1642
1 1.29795 15.6268 10.1974
1 5.59278 13.1418 10.1877
1 9.88257 10.6643 10.1945
1 14.1775 8.18454 10.1978
1 4.15975 19.0883 7.94536
1 8.45605 16.607 7.93383
1 12.7495 14.1301 7.93735
1 17.043 11.6546 7.92228
1 4.12357 4.20993 7.91752
1 8.43518 1.73049 7.93016
1 12.7402 19.0861 7.93754
1 17.0416 16.6199 7.94985
1 4.15274 9.16406 7.90999
1 8.44263 6.68165 7.92227
1 12.7445 4.20122 7.9165
1 17.0149 1.77501 8.0414
1 4.16255 14.1296 7.92191
1 8.45425 11.6437 7.9253
1 12.7468 9.15977 7.92291
1 17.0227 6.75382 7.84424
1 2.85212 1.49307 7.94218
1 7.15827 18.8557 7.93366
1 11.4538 16.375 7.93619
1 15.7445 13.9009 7.93702
1 2.8349 6.44215 7.89724
1 7.14152 3.97475 7.9327
1 11.4164 1.49771 7.91397
1 15.7477 18.8877 7.9541
1 2.86688 11.418 7.91807
1 7.15085 8.92626 7.92688
1 11.4431 6.44935 7.92373
1 15.7699 3.96488 7.99488
1 2.86677 16.3749 7.93117
1 7.15973 13.8906 7.92655
1 11.4506 11.4096 7.93196
1 15.7255 8.95183 7.92837
1 1.56883 19.0869 7.94422
1 5.86614 16.6037 7.92303
1 10.1563 14.1267 7.92926
1 14.4453 11.6557 7.92961
1 1.4669 4.16444 8.04035
1 5.84177 1.73014 7.94111
1 10.1524 19.0818 7.93341
1 14.4559 16.62 7.93417
1 1.56142 9.18261 7.9115
1 5.84038 6.67871 7.92591
1 10.1494 4.2051 7.93204
1 14.4027 1.72935 7.89791
1 1.56609 14.1323 7.92942
1 5.8592 11.6444 7.91902
1 10.1511 9.16297 7.92539
1 14.4627 6.67419 7.96124
1 1.57788 0.711465 1.19975
1 5.86679 18.111 1.14195
1 10.1562 15.6294 1.13724
1 14.4467 13.1446 1.14044
1 1.56585 5.67051 1.02392
1 5.85899 3.23373 1.14074
1 10.1684 0.756515 1.13908
1 14.455 18.1076 1.14926
1 1.56754 10.6598 1.11324
1 5.86292 8.18422 1.12017
1 10.1693 5.70739 1.1309
1 14.4768 3.23478 1.1278
1 1.56619 15.6208 1.13855
1 5.86083 13.1443 1.12467
1 10.1532 10.6653 1.12831
1 14.4502 8.1855 1.11615
1 2.87845 18.3268 1.13538
1 7.16069 15.8626 1.12971
1 11.4497 13.3822 1.13559
1 15.742 10.9007 1.13195
1 2.82721 3.4656 1.06121
1 7.17068 0.988611 1.14145
1 11.459 18.3469 1.13464
1 15.7438 15.8566 1.142
1 2.85963 8.39493 1.10715
1 7.17528 5.93894 1.14154
1 11.4669 3.46488 1.12658
1 15.7631 0.989528 1.16169
1 2.86559 13.3748 1.12481
1 7.15595 10.8976 1.12553
1 11.4504 8.41754 1.12796
1 15.7574 5.93279 1.10026
1 4.16148 0.750357 1.12443
1 8.46034 18.1107 1.13753
1 12.7504 15.6283 1.14351
1 17.043 13.1426 1.13227
1 4.16759 5.699 1.13311
1 8.46101 3.23235 1.12709
1 12.7678 0.758748 1.13633
1 17.0483 18.0951 1.14545
1 4.15501 10.6564 1.12643
1 8.45451 8.18896 1.12882
1 12.7648 5.71205 1.11638
1 17.0935 3.24528 1.06816
1 4.16398 15.6202 1.13305
1 8.45382 13.1462 1.13343
1 12.7432 10.6701 1.13962
1 17.0352 8.19366 1.13065
1 2.7396 1.75609 12.508
1 7.03101 19.0839 12.4651
1 11.3204 16.6096 12.4686
1 15.6122 14.1308 12.4667
1 2.71657 6.64836 12.4271
1 7.01748 4.20963 12.4795
1 11.3337 1.73101 12.4595
1 15.6071 19.0763 12.4776
1 2.72876 11.6486 12.4466
1 7.01849 9.16834 12.4512
1 11.3209 6.68883 12.4511
1 15.592 4.21057 12.4015
1 2.73211 16.6007 12.4594
1 7.02395 14.1261 12.4559
1 11.314 11.6485 12.4604
1 15.6043 9.18942 12.4572
1 5.75493 1.49871 12.4827
1 10.0273 18.8557 12.4657
1 14.3117 16.3754 12.4723
1 1.43977 8.93097 12.4314
1 5.71506 6.44393 12.4637
1 10.024 3.97554 12.4533
1 14.3367 1.50343 12.4567
1 1.43111 13.8951 12.4606
1 5.72097 11.4097 12.4558
1 10.0154 8.93148 12.4542
1 14.3355 6.45844 12.4214
1 1.45683 18.8527 12.4771
1 5.73049 16.372 12.4626
1 10.0197 13.8951 12.4636
1 14.3064 11.4223 12.466
1 0.171596 1.62657 12.5242
1 4.44518 19.0774 12.4635
1 8.72844 16.608 12.4608
1 13.016 14.1318 12.4676
1 0.103016 6.74406 12.4586
1 4.40187 4.20658 12.468
1 8.74073 1.72821 12.4636
1 13.0236 19.1004 12.4556
1 0.13322 11.6495 12.4564
1 4.42006 9.16125 12.4463
1 8.71717 6.68622 12.46
1 13.0127 4.21017 12.4331
1 0.138068 16.615 12.4668
1 4.43127 14.1259 12.4526
1 8.71976 11.6484 12.4554
1 13.0139 9.17287 12.4618
1 0.120307 3.23625 5.67224
1 4.409 0.757077 5.66568
1 8.72242 18.1099 5.66604
1 13.0188 15.6257 5.6747
1 0.143752 8.19874 5.61568
1 4.42276 5.71184 5.64862
1 8.7165 3.23215 5.67313
1 13.0178 0.745359 5.66063
1 0.134483 13.1465 5.66544
1 4.42982 10.6687 5.6458
1 8.72186 8.18174 5.66277
1 13.0283 5.70795 5.67063
1 0.130617 18.0994 5.689
1 4.4314 15.6288 5.66192
1 8.7245 13.1434 5.65975
1 13.0175 10.659 5.66554
1 1.40667 0.993779 5.69585
1 5.72344 18.3462 5.67234
1 10.0222 15.8618 5.66884
1 14.3132 13.3782 5.66541
1 1.42272 5.9198 5.67974
1 5.71176 3.46391 5.66914
1 10.0093 0.987779 5.66001
1 14.3204 18.3475 5.67827
1 1.4343 10.9033 5.64937
1 5.72212 8.4167 5.65839
1 10.0183 5.93488 5.65982
1 14.3254 3.46565 5.65544
1 1.43306 15.8599 5.66674
1 5.72982 13.3802 5.65829
1 10.0188 10.894 5.66161
1 14.3178 8.40864 5.65197
1 2.70806 3.24121 5.68027
1 7.00987 0.756295 5.66497
1 11.3194 18.1096 5.66562
1 15.6141 15.623 5.67695
1 2.72136 8.18904 5.65191
1 7.01505 5.70515 5.65969
1 11.3157 3.23188 5.65721
1 15.6297 0.762782 5.66294
1 2.73009 13.1469 5.65845
1 7.02187 10.6614 5.65873
1 11.3156 8.18068 5.65775
1 15.6292 5.6939 5.68038
1 2.72763 18.1084 5.67224
1 7.02583 15.6269 5.66065
1 11.3178 13.1424 5.67074
1 15.609 10.6666 5.66164
2 0.00365334 19.8072 4.88262
2 4.29858 17.3555 4.87136