LAMMPS (28 Jun 2014)
Processor partition = 6
Reading data file ...
  orthogonal box = (0 0 0) to (17.1781 19.8356 13.5931)
  1 by 1 by 1 MPI processor grid
  reading atoms ...
  479 atoms
287 atoms in group oxygen
192 atoms in group chromium
WARNING: Resetting reneighboring criteria during minimization (../min.cpp:168)
PPPM initialization ...
WARNING: System is not charge neutral, net charge = 2 (../kspace.cpp:278)
  G vector (1/distance) = 0.315056
  grid = 18 18 15
  stencil order = 5
  estimated absolute RMS force accuracy = 0.00121379
  estimated relative force accuracy = 8.42928e-05
  using double precision FFTs
  3d grid and FFT values/proc = 13750 4860
Setting up minimization ...
Memory usage per processor = 4.77636 Mbytes
Step PotEng Pxx Pyy Pzz Pxy Pxz Pyz Lx Ly Lz Temp 
       0   -14779.673    -135678.9   -130902.89   -34306.176   -786.70661    1960.8517    405.93034      17.1781      19.8356     13.59308            0 
     100   -14849.881   -83777.141   -84135.043   -187544.26    171.88626    1473.6588   -1447.5963      17.1781      19.8356     13.59308  0.093925877 
     200   -14849.842    -83637.01   -83965.403   -187393.94    125.70064    1567.1404   -1539.2804      17.1781      19.8356     13.59308 0.0028075953 
     300   -14849.858   -83676.952    -84009.01   -187390.15    117.81384    1594.2695   -1562.1361      17.1781      19.8356     13.59308 0.00066850964 
     400   -14849.863   -83691.471   -84026.175    -187395.3    116.70093    1596.0228   -1564.7049      17.1781      19.8356     13.59308 0.00027510744 
     500   -14849.867   -83705.848   -84042.669   -187399.67    116.32846    1597.6259    -1565.568      17.1781      19.8356     13.59308 8.7696698e-05 
     600    -14849.87    -83714.88    -84052.76   -187402.42    116.06701    1598.6055   -1566.5068      17.1781      19.8356     13.59308 8.3468032e-07 
     700   -14849.871   -83718.327    -84056.42   -187403.33    115.95926    1599.2459    -1566.901      17.1781      19.8356     13.59308 7.0718935e-06 
     719   -14849.871   -83718.853   -84056.987   -187403.52    115.95061    1599.2636   -1566.9479      17.1781      19.8356     13.59308 8.381621e-08 
Loop time of 34.8708 on 1 procs for 719 steps with 479 atoms

Minimization stats:
  Stopping criterion = force tolerance
  Energy initial, next-to-last, final = 
        -14779.6727116     -14849.8713905     -14849.8714547
  Force two-norm initial, final = 76.4977 0.000804981
  Force max component initial, final = 13.3063 0.00013938
  Final line search alpha, max atom move = 0 0
  Iterations, force evaluations = 719 719

Pair  time (%) = 14.4707 (41.498)
Kspce time (%) = 1.84861 (5.30132)
Neigh time (%) = 0 (0)
Comm  time (%) = 0.0514276 (0.14748)
Outpt time (%) = 0.000204325 (0.000585948)
Other time (%) = 18.4999 (53.0526)

Nlocal:    479 ave 479 max 479 min
Histogram: 1 0 0 0 0 0 0 0 0 0
Nghost:    6483 ave 6483 max 6483 min
Histogram: 1 0 0 0 0 0 0 0 0 0
Neighs:    178988 ave 178988 max 178988 min
Histogram: 1 0 0 0 0 0 0 0 0 0

Total # of neighbors = 178988
Ave neighs/atom = 373.67
Neighbor list builds = 0
Dangerous builds = 0
WARNING: Resetting reneighboring criteria during minimization (../min.cpp:168)
Setting up minimization ...
Memory usage per processor = 4.77636 Mbytes
Step PotEng Pxx Pyy Pzz Pxy Pxz Pyz Lx Ly Lz Temp 
     719   -14849.871   -83718.853   -84056.987   -187403.52    115.95061    1599.2636   -1566.9479      17.1781      19.8356     13.59308            0 
     720   -14849.871   -83718.853   -84056.987   -187403.52    115.95061    1599.2636   -1566.9479      17.1781      19.8356     13.59308 3.7229466e-08 
Loop time of 0.180125 on 1 procs for 1 steps with 479 atoms

Minimization stats:
  Stopping criterion = force tolerance
  Energy initial, next-to-last, final = 
        -14849.8714547     -14849.8714547     -14849.8714547
  Force two-norm initial, final = 0.000804981 0.000804981
  Force max component initial, final = 0.00013938 0.00013938
  Final line search alpha, max atom move = 0 0
  Iterations, force evaluations = 1 1

Pair  time (%) = 0.041537 (23.0601)
Kspce time (%) = 0.00426292 (2.36665)
Neigh time (%) = 0 (0)
Comm  time (%) = 0.000133038 (0.0738585)
Outpt time (%) = 0 (0)
Other time (%) = 0.134192 (74.4994)

Nlocal:    479 ave 479 max 479 min
Histogram: 1 0 0 0 0 0 0 0 0 0
Nghost:    6483 ave 6483 max 6483 min
Histogram: 1 0 0 0 0 0 0 0 0 0
Neighs:    180436 ave 180436 max 180436 min
Histogram: 1 0 0 0 0 0 0 0 0 0

Total # of neighbors = 180436
Ave neighs/atom = 376.693
Neighbor list builds = 0
Dangerous builds = 0
