

variable      mytemp equal  1400

# -------------------- FORCE FIELDS ----------------------
pair_style buck/coul/long 10.0 10.0

read_data	NPT_relaxed_1400.data
  orthogonal box = (0.20181 0.233032 0.212925) to (77.0992 89.0272 81.3456)
  1 by 7 by 1 MPI processor grid
  reading atoms ...
  58275 atoms
  reading velocities ...
  58275 velocities

pair_coeff    * * 1e-30 1e-30 0.0
pair_coeff    1 2 1204.18 0.3165   0.0
pair_coeff    1 1 9547.96 0.21916  32.0

kspace_style    pppm 0.0001

## Define group
group oxygen type 1
34965 atoms in group oxygen
group chromium type 2
23310 atoms in group chromium


## --------------------- NVT  --------------------
compute allmsd all displace/atom

#dump          2 all custom 25000  dump/dump id type xu yu zu c_allmsd[1] c_allmsd[2] c_allmsd[3] c_allmsd[4]
#dump          1 all xyz 25000 xyz/all.xyz
#dump_modify   1 element O Cr



compute   Omsd oxygen msd com yes
compute   Crmsd chromium msd com yes
variable  OMSDX equal "c_Omsd[1]"
variable  OMSDY equal "c_Omsd[2]"
variable  OMSDZ equal "c_Omsd[3]"
variable  OMSDAll equal "c_Omsd[4]"

variable  CrMSDX equal "c_Crmsd[1]"
variable  CrMSDY equal "c_Crmsd[2]"
variable  CrMSDZ equal "c_Crmsd[3]"
variable  CrMSDAll equal "c_Crmsd[4]"

thermo          1000
thermo_style    custom step pe ke press lx ly lz temp c_Omsd[1]  c_Omsd[2]  c_Omsd[3]  c_Omsd[4]  c_Crmsd[1]  c_Crmsd[2]  c_Crmsd[3]  c_Crmsd[4]


fix          1 all print 100 "${OMSDX}   ${OMSDY}   ${OMSDZ}  ${OMSDAll}  ${CrMSDX}   ${CrMSDY}   ${CrMSDZ}  ${CrMSDAll}" file MSD1400.data screen no
fix          3 all nvt temp ${mytemp} ${mytemp} 0.01
fix          3 all nvt temp 1400 ${mytemp} 0.01
fix          3 all nvt temp 1400 1400 0.01

run      1000000
PPPM initialization ...
  G vector (1/distance) = 0.309164
  grid = 72 80 75
  stencil order = 5
  estimated absolute RMS force accuracy = 0.00176997
  estimated relative force accuracy = 0.000122918
  using double precision FFTs
  3d grid and FFT values/proc = 123082 64800
Memory usage per processor = 22.54 Mbytes
Step PotEng KinEng Press Lx Ly Lz Temp Omsd[1] Omsd[2] Omsd[3] Omsd[4] Crmsd[1] Crmsd[2] Crmsd[3] Crmsd[4] 
       0   -1795543.2    10606.418    720.06126     76.89738    88.794136     81.13265    1408.0863 5.0757113e-29            0            0 5.0757113e-29 2.0194839e-28 2.1191153e-29            0 2.2313954e-28 
    1000   -1795490.3    10556.493    668.28099     76.89738    88.794136     81.13265    1401.4583  0.025786954  0.025323987  0.034261585  0.085372527  0.020931205  0.020291029  0.026848396   0.06807063 
    2000   -1795478.2    10496.816    677.91919     76.89738    88.794136     81.13265    1393.5358  0.025741002  0.026559265  0.032829855  0.085130122  0.021131125  0.021958556  0.025745503  0.068835184 
    3000   -1795535.8    10590.653    706.62846     76.89738    88.794136     81.13265    1405.9933  0.025590261  0.025247802  0.031772842  0.082610905  0.020683994  0.020234455  0.024773506  0.065691955 
    4000   -1795549.1    10601.927    636.73087     76.89738    88.794136     81.13265      1407.49  0.025406665   0.02521723  0.033479682  0.084103577  0.020410146  0.020360634  0.026619597  0.067390377 
    5000   -1795523.2    10575.486    471.40498     76.89738    88.794136     81.13265    1403.9798  0.025266305  0.025526349  0.032167095  0.082959749  0.020478448  0.020813767  0.025286025   0.06657824 
    6000   -1795486.8     10559.02    879.41614     76.89738    88.794136     81.13265    1401.7938  0.026119753  0.026185559  0.033213641  0.085518953  0.021257144   0.02108801   0.02605429  0.068399444 
    7000   -1795560.1    10558.629    676.68814     76.89738    88.794136     81.13265     1401.742  0.025379329  0.025667525  0.033014367  0.084061221  0.020665267  0.020759375  0.026048353  0.067472996 
    8000   -1795560.7    10470.812    119.74253     76.89738    88.794136     81.13265    1390.0835  0.025313356  0.025702515  0.034004649   0.08502052  0.020385093  0.020695878  0.026617252  0.067698222 
    9000   -1795528.3    10569.368    288.67633     76.89738    88.794136     81.13265    1403.1677  0.025631965  0.026598822  0.032391782  0.084622568  0.020721493  0.021120331  0.025057946  0.066899769 
   10000     -1795504    10478.874    528.36629     76.89738    88.794136     81.13265    1391.1539  0.025463713  0.026224166   0.03333647  0.085024348  0.020559732  0.020757997  0.026244317  0.067562046 
   11000   -1795441.9    10571.444     1336.946     76.89738    88.794136     81.13265    1403.4432  0.026012921  0.026061054  0.034632186  0.086706162  0.021131079  0.020811859  0.027211467  0.069154404 
   12000   -1795463.4    10509.778    441.60912     76.89738    88.794136     81.13265    1395.2566   0.02617154  0.026524741  0.032994573  0.085690854  0.020864826  0.021174854  0.026063945  0.068103626 
   13000   -1795534.2    10598.899    655.22776     76.89738    88.794136     81.13265    1407.0881  0.026697249  0.026655726  0.034741792  0.088094768  0.020986967  0.020936401  0.027200608  0.069123977 
   14000   -1795472.5     10556.21      328.697     76.89738    88.794136     81.13265    1401.4208  0.026136037  0.026369552  0.033258651   0.08576424   0.02052591  0.020376266  0.025994233  0.066896409 
   15000   -1795517.5    10534.074    482.52568     76.89738    88.794136     81.13265    1398.4821  0.027129589  0.026029118  0.033405004  0.086563711  0.021342969  0.020438687  0.026213376  0.067995032 
   16000   -1795437.3    10487.188    874.37568     76.89738    88.794136     81.13265    1392.2576  0.026610981  0.027263721  0.033753685  0.087628387  0.020964916  0.021781627  0.026926883  0.069673427 
   17000   -1795504.8     10562.22    406.07727     76.89738    88.794136     81.13265    1402.2187  0.026825014  0.026200549  0.033782536  0.086808099  0.021489742  0.020705196   0.02617877  0.068373707 
   18000   -1795520.8    10537.295    578.13821     76.89738    88.794136     81.13265    1398.9097  0.026755019  0.025514152  0.034123452  0.086392623  0.021500761   0.01997828  0.026685673  0.068164714 
   19000   -1795489.5    10588.172    565.58091     76.89738    88.794136     81.13265     1405.664  0.026602002  0.026814575  0.033035691  0.086452268  0.020674688  0.020718398  0.025360945  0.066754031 
   20000   -1795443.8    10509.839    1019.3108     76.89738    88.794136     81.13265    1395.2647  0.026738763  0.026562335  0.034704072  0.088005171  0.021354322  0.020835016  0.027374543   0.06956388 
   21000     -1795593    10621.727    297.83749     76.89738    88.794136     81.13265    1410.1187  0.026494568  0.026794038  0.032805251  0.086093857   0.02073105  0.020554315  0.025615289  0.066900653 
   22000     -1795447    10572.109    1378.3045     76.89738    88.794136     81.13265    1403.5316  0.026296787  0.026613371  0.033421098  0.086331256  0.021039394   0.02064943  0.026240889  0.067929713 
   23000   -1795499.7    10575.998    840.76792     76.89738    88.794136     81.13265    1404.0478  0.026452878  0.027315448  0.034222317  0.087990643  0.020619322  0.021239458  0.026375781  0.068234561 
   24000   -1795450.2     10534.69    1383.9839     76.89738    88.794136     81.13265    1398.5638  0.026569052  0.027045503  0.033298673  0.086913228  0.020986886  0.020583079  0.026487931  0.068057897 
   25000   -1795523.4    10498.069    144.41373     76.89738    88.794136     81.13265    1393.7021  0.027157604  0.026538407   0.03318231  0.086878321  0.021124745  0.020445998  0.026265196   0.06783594 
   26000   -1795515.8    10543.525    692.69256     76.89738    88.794136     81.13265    1399.7367  0.026504281  0.027274991  0.033427139  0.087206411  0.020759059  0.021062609  0.026609996  0.068431664 
   27000   -1795483.5    10499.486    420.81568     76.89738    88.794136     81.13265    1393.8903  0.026722754  0.027065354  0.032984386  0.086772494  0.020885393  0.020744895  0.025847372   0.06747766 
   28000   -1795482.3    10577.318    921.73992     76.89738    88.794136     81.13265    1404.2231  0.026821947  0.027937033  0.032736571  0.087495551  0.020675717  0.021385127  0.025805015  0.067865859 
   29000   -1795465.9    10547.003    539.52216     76.89738    88.794136     81.13265    1400.1985  0.026877763  0.027235372  0.034602794  0.088715929  0.020862472  0.020499153   0.02713724  0.068498865 
   30000   -1795559.1    10526.902    764.45137     76.89738    88.794136     81.13265      1397.53  0.026641749  0.028295898  0.032913254  0.087850901  0.020416881  0.020855272  0.025884681  0.067156835 
   31000   -1795451.9    10590.977    873.50018     76.89738    88.794136     81.13265    1406.0364  0.027156097  0.027921773  0.033243301  0.088321171  0.021022898  0.020891814  0.025687164  0.067601876 
   32000   -1795482.1    10552.201     547.5558     76.89738    88.794136     81.13265    1400.8886  0.026852597  0.027399108  0.033623945   0.08787565  0.020883073  0.020872843  0.026582011  0.068337926 
   33000   -1795525.8    10487.311    522.63224     76.89738    88.794136     81.13265    1392.2739  0.026690963  0.027752734  0.032650198  0.087093894  0.020592477  0.020600339  0.025673595  0.066866411 
   34000     -1795427    10553.288    919.32971     76.89738    88.794136     81.13265    1401.0328   0.02698331   0.02771118  0.033676261  0.088370751  0.020890867  0.020710948  0.026214869  0.067816684 
   35000   -1795432.2    10590.027     731.8755     76.89738    88.794136     81.13265    1405.9103  0.026989239  0.027822802  0.033098031  0.087910072  0.020831335  0.020722924  0.025819843  0.067374102 
   36000   -1795523.1    10548.196    487.14795     76.89738    88.794136     81.13265    1400.3569  0.026303074   0.02808336   0.03346371  0.087850145  0.020246786  0.021004177   0.02636871  0.067619674 
   37000   -1795552.9    10565.786    611.44115     76.89738    88.794136     81.13265    1402.6921  0.027183021  0.027880965   0.03322419  0.088288176   0.02072527  0.021164863  0.026567052  0.068457185 
   38000   -1795493.6    10470.922    788.86733     76.89738    88.794136     81.13265    1390.0981  0.027021251   0.02799521  0.032921955  0.087938416  0.020343608  0.021471923  0.026222736  0.068038267 
   39000   -1795526.3    10524.757    630.30819     76.89738    88.794136     81.13265    1397.2452  0.026894256  0.026738614  0.033841774  0.087474645  0.020882562  0.020641592  0.027086295  0.068610449 
   40000   -1795466.4    10544.245    678.35919     76.89738    88.794136     81.13265    1399.8323  0.027446596  0.027073976  0.032447301  0.086967874  0.021212851  0.020435835   0.02547321  0.067121895 
   41000     -1795495    10536.772    940.58237     76.89738    88.794136     81.13265    1398.8402  0.026782403  0.028227631  0.033187329  0.088197363  0.020426228  0.021234806  0.025973232  0.067634266 
   42000   -1795544.6    10589.231    447.54619     76.89738    88.794136     81.13265    1405.8046   0.02750625  0.027698583   0.03356272  0.088767552  0.020699896  0.021000002  0.026096479  0.067796377 
   43000   -1795496.9    10603.421    817.93174     76.89738    88.794136     81.13265    1407.6884  0.027349963  0.027094141  0.033121625  0.087565729  0.021236485  0.020342278  0.026259926   0.06783869 
   44000   -1795544.9     10522.36    577.87832     76.89738    88.794136     81.13265    1396.9269  0.027709004  0.027053687  0.032621433  0.087384123  0.021303431  0.020617563  0.025514978  0.067435972 
   45000   -1795446.2    10512.516    1198.8617     76.89738    88.794136     81.13265      1395.62  0.027364031   0.02725413  0.032848781  0.087466942  0.021083434  0.020837911  0.026542807  0.068464152 
   46000   -1795478.7    10591.465    785.45929     76.89738    88.794136     81.13265    1406.1012  0.026536668   0.02696174  0.033474511  0.086972918  0.020535793  0.020949738  0.026735381  0.068220911 
   47000   -1795503.8    10537.431    512.99783     76.89738    88.794136     81.13265    1398.9277   0.02677692   0.02688104  0.031876535  0.085534494  0.020675227  0.020372077  0.024678302  0.065725605 
   48000   -1795526.9    10537.868    700.06021     76.89738    88.794136     81.13265    1398.9857  0.027174882  0.027575821  0.033577712  0.088328415  0.021265092  0.021629355   0.02662888  0.069523327 
   49000   -1795566.9    10596.195    381.07697     76.89738    88.794136     81.13265    1406.7291   0.02636294  0.026734296  0.032451454   0.08554869  0.020717795   0.02076574  0.026059988  0.067543522 
   50000   -1795499.1    10489.321    691.99128     76.89738    88.794136     81.13265    1392.5407  0.027044343  0.027341267  0.033208719  0.087594329  0.021063918  0.021253828  0.026184406  0.068502152 
   51000     -1795510    10578.739    628.34973     76.89738    88.794136     81.13265    1404.4117  0.026869871  0.027512496  0.032913962  0.087296329  0.020898579  0.021360473  0.025864937   0.06812399 
   52000   -1795466.3    10511.706    740.06613     76.89738    88.794136     81.13265    1395.5125  0.026381621  0.027417625  0.033295331  0.087094577  0.020373788  0.021812702  0.026438156  0.068624647 
   53000   -1795488.7    10590.806    630.57992     76.89738    88.794136     81.13265    1406.0137  0.026517886  0.026405094  0.033029072  0.085952052  0.020864163  0.020998736  0.025832358  0.067695258 
   54000   -1795517.7    10566.642    593.35013     76.89738    88.794136     81.13265    1402.8057   0.02700992  0.027244359  0.032594989  0.086849268  0.020780933  0.021342142  0.025893231  0.068016307 
   55000   -1795476.8    10501.191    867.85776     76.89738    88.794136     81.13265    1394.1166  0.026729634  0.027513108  0.033934446  0.088177188  0.020832464  0.021653935  0.026736911  0.069223311 
   56000   -1795459.6    10539.416    821.91516     76.89738    88.794136     81.13265    1399.1913  0.027239614  0.027224781  0.032571479  0.087035873  0.020882369  0.020848588  0.025693562  0.067424519 
   57000   -1795497.7    10599.573    922.25704     76.89738    88.794136     81.13265    1407.1776  0.026979222  0.026724151   0.03294318  0.086646553  0.020818848  0.020639426  0.026457741  0.067916016 
   58000   -1795479.7    10563.657    843.42611     76.89738    88.794136     81.13265    1402.4095  0.026954005  0.027399068   0.03335076  0.087703833   0.02057902   0.02133425  0.026670804  0.068584073 
   59000   -1795526.2    10512.324    578.60864     76.89738    88.794136     81.13265    1395.5946  0.027492168  0.027184367  0.033365225  0.088041759  0.021206205  0.021335537  0.026033108  0.068574849 
   60000   -1795549.1    10538.491    625.35487     76.89738    88.794136     81.13265    1399.0685  0.027281567  0.027466164  0.033342717  0.088090447  0.021153232  0.021342547  0.026718978  0.069214757 
   61000   -1795545.7    10543.672    875.84612     76.89738    88.794136     81.13265    1399.7563  0.027383944  0.027396353  0.033498501  0.088278798  0.021033779  0.021312547   0.02662189  0.068968217 
   62000   -1795524.3    10594.104    668.51716     76.89738    88.794136     81.13265    1406.4516  0.027220068  0.027414589  0.033490413  0.088125071  0.021478156  0.021322264  0.026401942  0.069202362 
   63000   -1795565.7    10509.415    260.89398     76.89738    88.794136     81.13265    1395.2083  0.027012551  0.027452487  0.033403004  0.087868042  0.020703266   0.02115778  0.026385474   0.06824652 
   64000   -1795535.6    10473.907    987.46631     76.89738    88.794136     81.13265    1390.4943  0.027282884  0.027007224  0.033725598  0.088015706  0.020926938  0.021002255  0.027156723  0.069085915 
   65000   -1795534.5     10598.91    937.05172     76.89738    88.794136     81.13265    1407.0895   0.02690452  0.027657891   0.03360835  0.088170761  0.020521882  0.021612747  0.026761342   0.06889597 
   66000   -1795408.2    10490.347    747.71346     76.89738    88.794136     81.13265    1392.6769  0.027087025  0.026434162  0.032755674   0.08627686  0.020591126   0.02042852  0.026305316  0.067324961 
   67000   -1795520.2    10562.945    181.23477     76.89738    88.794136     81.13265    1402.3149  0.027183262  0.027059327  0.034238194  0.088480783  0.020952793  0.021292331  0.027643061  0.069888185 
   68000   -1795500.7    10502.901    615.81245     76.89738    88.794136     81.13265    1394.3436   0.02684499  0.027150645  0.033718552  0.087714186   0.02052459  0.020785992  0.026566427  0.067877009 
   69000   -1795537.5    10600.188    377.02522     76.89738    88.794136     81.13265    1407.2592   0.02798038  0.027276613  0.033601235  0.088858228  0.021151504  0.021166206  0.026558685  0.068876396 
   70000   -1795575.2    10621.969    674.24385     76.89738    88.794136     81.13265    1410.1508  0.027148886  0.027274255  0.033551084  0.087974225   0.02055506  0.020970966  0.026827239  0.068353265 
   71000   -1795525.6    10533.188    219.12669     76.89738    88.794136     81.13265    1398.3644  0.027939467  0.026977603  0.033479324  0.088396394  0.021007794  0.020869573  0.026372022  0.068249389 
   72000   -1795525.9    10526.059    132.65707     76.89738    88.794136     81.13265     1397.418  0.027991458  0.028284028  0.032581148  0.088856633   0.02121115  0.021456161  0.025663442  0.068330754 
   73000   -1795474.3    10497.397     955.9117     76.89738    88.794136     81.13265    1393.6129  0.027967473  0.027603088  0.033537682  0.089108244    0.0209863  0.021019723  0.026583835  0.068589858 
   74000   -1795531.1    10540.374    501.78223     76.89738    88.794136     81.13265    1399.3185   0.02757996  0.027977467  0.033823947  0.089381374  0.020569892  0.021499324  0.026939823  0.069009038 
   75000   -1795507.9    10533.081    857.14905     76.89738    88.794136     81.13265    1398.3503  0.027784883  0.027956718   0.03342903  0.089170631   0.02122124  0.021344004  0.026365198  0.068930441 
   76000   -1795546.8    10538.363    411.70449     76.89738    88.794136     81.13265    1399.0514  0.028126155  0.028136344  0.033364975  0.089627474  0.020957225   0.02160056  0.026707749  0.069265534 
   77000   -1795512.1    10544.777    39.319464     76.89738    88.794136     81.13265     1399.903  0.028204003  0.028186591  0.033427623  0.089818217  0.021275065  0.021480953  0.026875812   0.06963183 
   78000   -1795503.2     10461.14    179.33569     76.89738    88.794136     81.13265    1388.7995  0.028042796  0.028329993  0.032926027  0.089298817  0.020695224  0.021196489  0.025894533  0.067786246 
   79000   -1795510.2    10549.691    463.53097     76.89738    88.794136     81.13265    1400.5553   0.02780342  0.028192191  0.033363266  0.089358877  0.020404208  0.021066272  0.026652792  0.068123271 
   80000   -1795446.6    10520.918    908.18225     76.89738    88.794136     81.13265    1396.7355  0.028623335  0.028285699   0.03395151  0.090860544  0.021095499  0.021184648  0.027300779  0.069580925 
   81000   -1795509.6    10520.432    806.13771     76.89738    88.794136     81.13265    1396.6709  0.028742572  0.028543241   0.03431382  0.091599633  0.020998441  0.021710892  0.027745029  0.070454362 
   82000   -1795478.4    10533.445    777.20504     76.89738    88.794136     81.13265    1398.3985   0.02867249  0.028633551  0.034368126  0.091674168  0.021309984  0.021542394  0.027222251  0.070074628 
   83000   -1795486.6    10607.006    301.99479     76.89738    88.794136     81.13265    1408.1643  0.028086345  0.028889766  0.033479456  0.090455567   0.02077658  0.021872005  0.027054703  0.069703288 
   84000   -1795553.6    10520.262    363.89635     76.89738    88.794136     81.13265    1396.6484  0.027585029  0.028641307  0.033595189  0.089821525  0.020500806  0.021234043  0.026795694  0.068530542 
   85000   -1795488.1    10547.755    516.16627     76.89738    88.794136     81.13265    1400.2983  0.028557655  0.028915322  0.033711921  0.091184898  0.021351659  0.021643829  0.026644159  0.069639647 
   86000   -1795541.7    10535.097    445.83281     76.89738    88.794136     81.13265    1398.6178  0.027737478  0.028240011  0.033339359  0.089316847  0.020342878  0.021492048  0.026063408  0.067898333 
   87000   -1795528.4    10501.742    134.66367     76.89738    88.794136     81.13265    1394.1897  0.028188695  0.028193801  0.033933716  0.090316211  0.021118493  0.021008211   0.02757231  0.069699013 
   88000   -1795580.5    10558.351    396.88086     76.89738    88.794136     81.13265     1401.705  0.028009184  0.027729455  0.033350146  0.089088785  0.020491011  0.020553243  0.026895464  0.067939718 
   89000   -1795541.8    10596.537    687.73812     76.89738    88.794136     81.13265    1406.7745  0.028515276  0.028255133   0.03358014  0.090350549  0.021242532  0.021222277  0.026826801   0.06929161 
   90000   -1795521.7    10591.467    600.04284     76.89738    88.794136     81.13265    1406.1014  0.027658388  0.027454255  0.033559752  0.088672395   0.02049513  0.020558062  0.026825881  0.067879073 
   91000   -1795484.3    10510.608    592.64046     76.89738    88.794136     81.13265    1395.3668  0.027405966  0.028500657  0.033386462  0.089293084  0.020619971  0.021374686  0.026390187  0.068384844 
   92000   -1795428.3    10487.395    1263.7052     76.89738    88.794136     81.13265    1392.2851   0.02758169  0.028445789  0.033280464  0.089307943  0.020834686  0.021137968  0.027093043  0.069065696 
   93000   -1795468.4    10533.298    838.18786     76.89738    88.794136     81.13265    1398.3791  0.028127553  0.027839014  0.033017973   0.08898454  0.020755523  0.021113615  0.025925216  0.067794354 
   94000   -1795530.3    10508.807    457.34894     76.89738    88.794136     81.13265    1395.1276  0.029345159  0.028192274  0.033206565  0.090743997  0.021609523  0.021504935  0.026536271  0.069650729 
   95000   -1795464.3    10563.205    1037.9681     76.89738    88.794136     81.13265    1402.3494  0.028395838  0.028240749  0.033875261  0.090511848  0.021555165  0.021077663  0.027047717  0.069680545 
   96000   -1795542.2    10547.136    487.68991     76.89738    88.794136     81.13265    1400.2162   0.02765511  0.027543078  0.032848192   0.08804638   0.02011825  0.021212972  0.026275266  0.067606487 
   97000     -1795503    10504.197    1001.3012     76.89738    88.794136     81.13265    1394.5156   0.02849335  0.027401712  0.033126307  0.089021369  0.021044232  0.021377031  0.026569794  0.068991056 
   98000   -1795484.1    10555.724    730.91328     76.89738    88.794136     81.13265    1401.3562  0.028725612  0.027168567  0.033502536  0.089396715  0.021080843  0.021026184  0.026461613   0.06856864 
   99000   -1795538.3    10517.292    426.60488     76.89738    88.794136     81.13265    1396.2542  0.028909936  0.027148261  0.033676208  0.089734406  0.021524748  0.020656626  0.026369289  0.068550664 
  100000   -1795554.7    10518.411    487.90094     76.89738    88.794136     81.13265    1396.4026  0.028084695  0.027407767  0.033579521  0.089071983  0.020681206  0.020973844  0.026907122  0.068562172 
  101000   -1795536.4    10555.015    347.62814     76.89738    88.794136     81.13265    1401.2621  0.028193704  0.027496872  0.033233098  0.088923674  0.020789303  0.020815374  0.026652646  0.068257322 
  102000     -1795502    10538.383    795.09377     76.89738    88.794136     81.13265    1399.0541  0.027687102    0.0272073  0.032995825  0.087890227  0.020382647  0.020452888  0.027040571  0.067876107 
  103000   -1795531.2     10587.38    560.60167     76.89738    88.794136     81.13265    1405.5589  0.028011564  0.027726243  0.032872378  0.088610185  0.020724379   0.02139221  0.026442935  0.068559525 
  104000   -1795495.7    10490.916    273.19317     76.89738    88.794136     81.13265    1392.7525  0.028418003  0.027698844  0.033607396  0.089724243  0.021049147  0.021360155   0.02666165  0.069070952 
  105000   -1795532.9     10537.32    786.30803     76.89738    88.794136     81.13265     1398.913  0.028209331  0.027252204  0.033060724  0.088522259   0.02102453  0.020166193  0.026202779  0.067393502 
  106000   -1795545.1    10594.564     230.6617     76.89738    88.794136     81.13265    1406.5126  0.028014431  0.028374059  0.033608588  0.089997077   0.02098488  0.021707891  0.026565172  0.069257943 
  107000   -1795528.9      10568.5     318.9135     76.89738    88.794136     81.13265    1403.0524  0.027665759   0.02757535  0.033552402  0.088793512  0.020831984  0.021329579  0.026243758  0.068405322 
  108000   -1795491.4    10552.623     537.1498     76.89738    88.794136     81.13265    1400.9446  0.027704112   0.02749203  0.033255891  0.088452033  0.021419525  0.020846399  0.026401246   0.06866717 
  109000   -1795459.8    10595.077    779.08663     76.89738    88.794136     81.13265    1406.5807   0.02801112  0.027765661  0.033630743  0.089407523  0.021081505  0.021309448  0.026884167   0.06927512 
  110000     -1795527    10504.161    608.42759     76.89738    88.794136     81.13265    1394.5109  0.027520225  0.027949639  0.032524086  0.087993951  0.021148528  0.021451207   0.02602033  0.068620065 
  111000   -1795530.4    10503.542     603.9523     76.89738    88.794136     81.13265    1394.4286  0.027824818  0.027552341  0.033514007  0.088891166  0.020927777  0.021099918  0.027157802  0.069185497 
  112000   -1795450.1    10532.736    1033.5529     76.89738    88.794136     81.13265    1398.3044  0.027854879  0.028006379  0.032780273  0.088641531  0.020763523  0.021434267  0.026001152  0.068198942 
  113000   -1795445.4    10546.493    1068.9674     76.89738    88.794136     81.13265    1400.1308  0.028051513  0.028370817  0.033326073  0.089748404  0.021254177  0.021756139  0.026811031  0.069821347 
  114000   -1795491.9    10519.925    1314.8614     76.89738    88.794136     81.13265    1396.6037  0.027749075  0.028293266  0.033171363  0.089213703  0.021363039  0.021459368  0.026687881  0.069510287 
  115000   -1795474.2    10574.962     673.4587     76.89738    88.794136     81.13265    1403.9103  0.027543083  0.027239512  0.032484866  0.087267462  0.020687888  0.020907513  0.026110089   0.06770549 
  116000   -1795436.7    10642.321    1272.2336     76.89738    88.794136     81.13265    1412.8527  0.028023592  0.027288671  0.034583245  0.089895508  0.021567133  0.021104573   0.02827107  0.070942775 
  117000   -1795542.7    10648.023    558.20481     76.89738    88.794136     81.13265    1413.6097  0.028068187  0.027558291  0.033333138  0.088959617  0.021397226  0.021233083  0.026415452  0.069045761 
  118000   -1795568.9    10501.295    239.64229     76.89738    88.794136     81.13265    1394.1304  0.028518513  0.028148852  0.033422689  0.090090054  0.021550758  0.021663368  0.026266891  0.069481018 
  119000   -1795490.8    10546.308      823.535     76.89738    88.794136     81.13265    1400.1062  0.027498163  0.027776014  0.033600879  0.088875056  0.020930413  0.020879847  0.026769457  0.068579718 
  120000   -1795460.6    10566.346    468.55754     76.89738    88.794136     81.13265    1402.7665  0.027235795  0.027515377  0.032834898   0.08758607  0.020641407  0.020960848  0.026401415  0.068003669 
  121000   -1795512.7    10577.508    639.74702     76.89738    88.794136     81.13265    1404.2483  0.027861882  0.027478939   0.03448676   0.08982758  0.021186465  0.020744146  0.027352728  0.069283339 
  122000   -1795483.7    10558.107    730.51203     76.89738    88.794136     81.13265    1401.6727  0.028023714  0.027992699  0.033168954  0.089185367  0.021388966  0.021165391  0.026671171  0.069225529 
  123000   -1795519.6    10585.548    257.13644     76.89738    88.794136     81.13265    1405.3156   0.02779657   0.02818163  0.033570314  0.089548514  0.020932953  0.021443201  0.026694926   0.06907108 
  124000   -1795499.3    10503.772    803.43515     76.89738    88.794136     81.13265    1394.4593  0.027691653  0.027869048  0.033218124  0.088778825  0.021031529  0.021544209  0.027025441  0.069601179 
  125000   -1795475.1    10565.171    713.84244     76.89738    88.794136     81.13265    1402.6105  0.027596932  0.027783616  0.033322395  0.088702944  0.020795462   0.02109159  0.027001688  0.068888739 
  126000   -1795497.9    10525.586    652.76363     76.89738    88.794136     81.13265    1397.3552  0.027885744  0.027589796  0.033162488  0.088638028  0.021367534  0.020763772  0.026966372  0.069097678 
  127000   -1795553.4    10499.308    184.66732     76.89738    88.794136     81.13265    1393.8666  0.027381699  0.028227364  0.033699897  0.089308959  0.020661266  0.021629052  0.027123534  0.069413851 
  128000   -1795545.4    10523.137    721.02194     76.89738    88.794136     81.13265    1397.0301  0.027264621  0.027688492   0.03432392  0.089277033  0.021012777  0.020458394  0.026878484  0.068349656 
  129000   -1795538.9    10542.794    322.88179     76.89738    88.794136     81.13265    1399.6397  0.027051798  0.028022625  0.033314483  0.088388906  0.020450408  0.020559696  0.026755967   0.06776607 
  130000   -1795522.1    10535.901    845.45993     76.89738    88.794136     81.13265    1398.7247  0.028404383  0.028710176  0.033835086  0.090949645  0.021543996  0.021864852  0.026981228  0.070390076 
  131000   -1795523.2    10542.361    689.04808     76.89738    88.794136     81.13265    1399.5822  0.027892532  0.028430432   0.03397396  0.090296923  0.021093586  0.021003942  0.026453542   0.06855107 
  132000   -1795462.6    10597.721    1197.1299     76.89738    88.794136     81.13265    1406.9317  0.027978717  0.027916669  0.032662221  0.088557607  0.021460594  0.020533635  0.025854252  0.067848481 
  133000   -1795572.1    10541.996    266.43867     76.89738    88.794136     81.13265    1399.5338  0.027866073  0.028186267   0.03358202   0.08963436  0.020962299  0.021610521  0.027418983  0.069991803 
  134000   -1795498.2    10554.566    424.40018     76.89738    88.794136     81.13265    1401.2025  0.027975815  0.029280095  0.032478859  0.089734768  0.020997012  0.021892577  0.025416898  0.068306487 
  135000   -1795547.6    10491.241   -37.198632     76.89738    88.794136     81.13265    1392.7956  0.027883838  0.027999657  0.033819072  0.089702567  0.021284621  0.021113993  0.026562133  0.068960746 
  136000   -1795494.1    10579.325    1001.3891     76.89738    88.794136     81.13265    1404.4895  0.027333008  0.027966324   0.03335282  0.088652152  0.021016161  0.021070231  0.026427235  0.068513627 
  137000     -1795507    10570.558    400.34826     76.89738    88.794136     81.13265    1403.3256  0.028107375  0.028414651  0.033665454   0.09018748  0.021561326  0.021557775  0.026519745  0.069638845 
  138000   -1795525.6     10601.09     292.2209     76.89738    88.794136     81.13265     1407.379  0.027375783  0.028075267  0.033449187  0.088900238  0.021025318  0.021018114  0.026413541  0.068456972 
  139000   -1795518.8     10639.18    474.75975     76.89738    88.794136     81.13265    1412.4356  0.027719591  0.028261108  0.032584072   0.08856477  0.020906472   0.02124506  0.025979319  0.068130851 
  140000   -1795477.7    10532.186    673.39262     76.89738    88.794136     81.13265    1398.2314  0.027605775  0.028230446  0.033431985  0.089268206  0.021064137  0.021387042  0.026914436  0.069365615 
  141000   -1795524.5    10548.567    457.00533     76.89738    88.794136     81.13265    1400.4061   0.02818502  0.028846606  0.032851982  0.089883608  0.021596697  0.021756438  0.026338808  0.069691943 
  142000   -1795494.3    10513.583    862.97771     76.89738    88.794136     81.13265    1395.7618  0.027831269  0.028500203  0.032940163  0.089271636  0.021143973  0.021401043  0.026362208  0.068907224 
  143000   -1795548.3     10616.43    689.18721     76.89738    88.794136     81.13265    1409.4155  0.028027195  0.028769044  0.034151756  0.090947994  0.021286501   0.02129107  0.027514871  0.070092441 
  144000   -1795519.4    10505.758    392.56968     76.89738    88.794136     81.13265    1394.7228  0.028002404  0.028497112  0.032811512  0.089311027  0.021124298  0.021435822  0.025998268  0.068558389 
  145000   -1795570.3    10538.155    444.16658     76.89738    88.794136     81.13265    1399.0239  0.027879367  0.028199451  0.033948194  0.090027011  0.021305994  0.020889865  0.026680701  0.068876559 
  146000   -1795532.5    10535.904    591.82447     76.89738    88.794136     81.13265     1398.725  0.027781335  0.028788968  0.033605651  0.090175954  0.020981388  0.021424925  0.026648048  0.069054361 
  147000   -1795537.2    10588.669    403.84208     76.89738    88.794136     81.13265      1405.73  0.027645072  0.028146803  0.033553658  0.089345533  0.021406928  0.021162552  0.026510852  0.069080333 
  148000     -1795493    10500.744    240.65485     76.89738    88.794136     81.13265    1394.0573  0.027314013  0.028270397  0.033642193  0.089226603  0.020775498  0.020991756   0.02677901  0.068546264 
  149000   -1795474.6    10534.379     329.9672     76.89738    88.794136     81.13265    1398.5225  0.027185723   0.02859816  0.033573424  0.089357308   0.02121017  0.021522176  0.026465328  0.069197674 
  150000   -1795496.5    10527.278    516.64129     76.89738    88.794136     81.13265    1397.5798  0.027497186  0.029160833   0.03372234  0.090380359   0.02138644  0.021826472    0.0266858  0.069898712 
  151000     -1795459    10594.862    859.35168     76.89738    88.794136     81.13265    1406.5522  0.027224987  0.028653741   0.03359099  0.089469718  0.020788392  0.021779361  0.026345528  0.068913281 
  152000   -1795574.4    10598.348    61.369316     76.89738    88.794136     81.13265     1407.015  0.027788654  0.027718817  0.033388009   0.08889548    0.0218083  0.020920891  0.027277349   0.07000654 
  153000   -1795529.9    10522.152    200.31485     76.89738    88.794136     81.13265    1396.8993   0.02796502  0.028855485  0.033342361  0.090162866   0.02176429  0.022135222  0.026254222  0.070153734 
  154000   -1795435.6    10523.534    939.78699     76.89738    88.794136     81.13265    1397.0828  0.027988442  0.028390862   0.03374135  0.090120654  0.021765463  0.021391255  0.026506478  0.069663196 
  155000   -1795539.2     10447.24    59.820868     76.89738    88.794136     81.13265    1386.9541  0.027427321  0.028569884  0.034072209  0.090069413  0.021304894  0.021456273  0.027016983   0.06977815 
  156000     -1795553    10554.266    535.96371     76.89738    88.794136     81.13265    1401.1627  0.027670863  0.028531809  0.033157634  0.089360306  0.021185959  0.022067347  0.026872401  0.070125708 
  157000   -1795598.1    10509.349    159.21844     76.89738    88.794136     81.13265    1395.1996  0.028091475  0.028405005  0.033612729  0.090109208  0.021138749  0.021540225   0.02699227  0.069671244 
  158000   -1795550.8    10596.721    624.69504     76.89738    88.794136     81.13265     1406.799  0.027255742  0.028819832  0.033693833  0.089769406  0.021024456  0.021855589  0.027157174  0.070037219 
  159000   -1795536.5     10569.39    491.00813     76.89738    88.794136     81.13265    1403.1705  0.028498205  0.028259267  0.033577054  0.090334526  0.021619083  0.021637896  0.026826014  0.070082994 
  160000   -1795454.8    10586.136    931.71938     76.89738    88.794136     81.13265    1405.3936  0.028221468  0.028537713  0.033096586  0.089855767  0.021755447  0.021967526  0.026488635  0.070211608 
  161000   -1795482.5    10544.879    1051.9711     76.89738    88.794136     81.13265    1399.9165  0.027920961  0.028428201  0.033297842  0.089647004    0.0213508  0.022051582   0.02652463  0.069927012 
  162000   -1795514.9    10560.775    225.17365     76.89738    88.794136     81.13265    1402.0268  0.028113881  0.028549272  0.033243102  0.089906256  0.020819642  0.022081592  0.025964865  0.068866099 
  163000   -1795518.5    10620.223    597.95947     76.89738    88.794136     81.13265    1409.9191  0.027971831  0.028033929  0.033404025  0.089409786  0.020955679  0.021698185  0.026261375  0.068915238 
  164000   -1795527.8    10516.077    481.41254     76.89738    88.794136     81.13265    1396.0928  0.028458689  0.028194425  0.033953177  0.090606291  0.021842384  0.022076544  0.026809551  0.070728479 
  165000   -1795555.5    10584.207    1151.0488     76.89738    88.794136     81.13265    1405.1376  0.027721474   0.02841132  0.033046621  0.089179414  0.021501949  0.021785414  0.025808754  0.069096117 
  166000   -1795597.9    10496.776   -78.112905     76.89738    88.794136     81.13265    1393.5305  0.027367491  0.028063612  0.033363231  0.088794335   0.02099435  0.022037153  0.027140075  0.070171578 
  167000   -1795500.1    10485.117    443.78594     76.89738    88.794136     81.13265    1391.9826  0.027678469  0.028671138  0.034135784   0.09048539  0.021233379  0.021974016  0.027558197  0.070765592 
  168000   -1795456.9    10556.477    1130.5529     76.89738    88.794136     81.13265    1401.4562  0.027857588  0.029132952  0.033179765  0.090170304  0.020737194   0.02258555  0.026380899  0.069703642 
  169000   -1795505.2    10608.403    596.28713     76.89738    88.794136     81.13265    1408.3498  0.029253709  0.027879845  0.033623251  0.090756806  0.022285267  0.021694122  0.026862483  0.070841872 
  170000   -1795522.2    10546.427    464.76189     76.89738    88.794136     81.13265    1400.1221  0.027765307  0.028453387  0.033340712  0.089559406  0.021156309  0.022240339  0.026434546  0.069831194 
  171000   -1795554.7    10516.765    397.85297     76.89738    88.794136     81.13265    1396.1842  0.028187772  0.028401586  0.033235878  0.089825235  0.021719875  0.021996703  0.026655096  0.070371674 
  172000   -1795517.2     10512.86    530.91912     76.89738    88.794136     81.13265    1395.6657  0.028942482  0.028172039   0.03316332  0.090277841  0.022620537  0.021881931  0.026321446  0.070823914 
  173000   -1795487.5    10568.017    319.17588     76.89738    88.794136     81.13265    1402.9882  0.027856381  0.028222401  0.033812376  0.089891158  0.021874752  0.021756919  0.027278096  0.070909767 
  174000   -1795500.9    10581.422    706.51517     76.89738    88.794136     81.13265    1404.7679  0.027313521  0.028157764   0.03341829  0.088889575  0.020982003  0.022137722  0.026564376  0.069684102 
  175000   -1795520.6    10552.499    578.70021     76.89738    88.794136     81.13265    1400.9281  0.027688933  0.028150675  0.032861466  0.088701074  0.021559217  0.022111607  0.026227054  0.069897879 
  176000   -1795512.8    10534.382    438.03063     76.89738    88.794136     81.13265    1398.5229    0.0286363  0.028871512   0.03315986  0.090667672  0.021847447  0.022097449  0.026167302  0.070112198 
  177000   -1795525.8    10530.687    492.35166     76.89738    88.794136     81.13265    1398.0324  0.028251122  0.028282672  0.033332005  0.089865799  0.021222009  0.022298388  0.026780537  0.070300934 
  178000   -1795504.4    10587.429    711.60547     76.89738    88.794136     81.13265    1405.5653  0.027757256  0.028486708  0.033574462  0.089818426  0.020899418  0.022094728  0.027597884  0.070592031 
  179000     -1795537    10517.057    327.28582     76.89738    88.794136     81.13265    1396.2229  0.028082892  0.028239098   0.03267173   0.08899372  0.021659189  0.021935054  0.025794815  0.069389058 
  180000   -1795573.7     10551.06    393.48148     76.89738    88.794136     81.13265    1400.7371  0.027881717  0.028227015  0.033523383  0.089632115  0.021265697  0.022141152  0.026712331   0.07011918 
  181000   -1795497.8    10532.917     692.4973     76.89738    88.794136     81.13265    1398.3285  0.027925244  0.028412626  0.034160976  0.090498846  0.021683372   0.02201765  0.027095941  0.070796962 
  182000   -1795436.3     10505.37    843.50793     76.89738    88.794136     81.13265    1394.6714  0.028398588  0.029002679  0.033036382  0.090437649  0.021573258  0.022637172  0.026129319   0.07033975 
  183000   -1795426.1    10563.831    1190.8014     76.89738    88.794136     81.13265    1402.4325  0.028292523  0.028754116  0.033399862  0.090446501  0.021841278  0.022322779  0.026421332  0.070585389 
  184000   -1795570.7    10611.323    231.56763     76.89738    88.794136     81.13265    1408.7374  0.027788044   0.02840153  0.032858978  0.089048553  0.021676118  0.022165502  0.026159887  0.070001506 
  185000   -1795481.7    10535.632    884.63438     76.89738    88.794136     81.13265    1398.6888  0.028020269  0.028930928  0.033049639  0.090000836  0.021013646  0.022556725  0.026635928    0.0702063 
  186000   -1795499.6    10575.737    661.54548     76.89738    88.794136     81.13265    1404.0131  0.028998584  0.028221127  0.032827101  0.090046811  0.022318236  0.021932386  0.025735431  0.069986053 
  187000   -1795444.1    10545.147    998.40513     76.89738    88.794136     81.13265     1399.952  0.028330845  0.028943507  0.034000251  0.091274603  0.021845522   0.02242908  0.027298092  0.071572694 
  188000   -1795486.7    10522.039     901.2518     76.89738    88.794136     81.13265    1396.8843  0.028470568  0.028690798  0.033903098  0.091064465  0.021487073  0.021977353  0.026848264   0.07031269 
  189000   -1795507.5    10508.324    682.36818     76.89738    88.794136     81.13265    1395.0636  0.028545565  0.028546748  0.033013441  0.090105754  0.021623587  0.022516589  0.026580398  0.070720574 
  190000   -1795511.9    10573.644    651.60065     76.89738    88.794136     81.13265    1403.7353  0.028099455  0.029275062  0.033636679  0.091011196  0.021158877  0.022496194  0.026625823  0.070280894 
  191000   -1795382.2    10566.352    1000.2313     76.89738    88.794136     81.13265    1402.7673  0.029164407  0.028764383  0.033048884  0.090977674  0.022080528   0.02222454  0.026364518  0.070669585 
  192000   -1795530.4     10622.38     717.1903     76.89738    88.794136     81.13265    1410.2054  0.028857038  0.028859666  0.033516897    0.0912336  0.021540061  0.022102686  0.027044994  0.070687741 
  193000     -1795562      10569.7    184.46909     76.89738    88.794136     81.13265    1403.2117  0.029038618  0.028160031  0.033059747  0.090258396  0.021860167  0.022084968  0.026540708  0.070485843 
  194000   -1795497.1    10535.527    529.61706     76.89738    88.794136     81.13265    1398.6749  0.028767503   0.02810511  0.034011759  0.090884373  0.021664881  0.022393382  0.026922114  0.070980377 
  195000   -1795531.6    10589.656    408.45567     76.89738    88.794136     81.13265     1405.861  0.028313844   0.02803342  0.033473558  0.089820821  0.021377279  0.021997867  0.026618587  0.069993734 
  196000   -1795535.7    10522.134    553.69392     76.89738    88.794136     81.13265    1396.8969  0.028278171  0.028619764  0.032950618  0.089848554  0.020815215  0.022654962  0.026555665  0.070025842 
  197000   -1795442.7    10590.872    638.43157     76.89738    88.794136     81.13265    1406.0225  0.027922842  0.028513434  0.034028867  0.090465143  0.020749091  0.022577399  0.027322633  0.070649123 
  198000   -1795505.5    10554.558    868.59089     76.89738    88.794136     81.13265    1401.2014   0.02858005  0.028110933  0.033275965  0.089966948  0.021667615  0.022255188  0.026289737   0.07021254 
  199000   -1795568.3    10504.486    289.48356     76.89738    88.794136     81.13265     1394.554  0.028884363  0.027470849  0.034229912  0.090585124  0.022000955  0.021712119  0.027460593  0.071173667 
  200000   -1795503.8    10532.046    488.10677     76.89738    88.794136     81.13265    1398.2129  0.028577432  0.027980758  0.033483033  0.090041223  0.021469531  0.022372292  0.027164595  0.071006418 
  201000     -1795486    10587.432    989.93225     76.89738    88.794136     81.13265    1405.5657  0.028535766  0.027807795  0.033525425  0.089868986  0.021027232  0.022322872  0.026840387  0.070190492 
  202000   -1795533.3    10561.514    850.92017     76.89738    88.794136     81.13265    1402.1249  0.028746757  0.028305907  0.034011182  0.091063846  0.021788297  0.022478484  0.027256263  0.071523043 
  203000   -1795486.6    10519.296    889.04879     76.89738    88.794136     81.13265    1396.5202  0.029283597  0.027773818   0.03328115  0.090338565  0.021875317  0.022119368  0.026025221  0.070019906 
  204000   -1795497.2    10585.254    641.59908     76.89738    88.794136     81.13265    1405.2767  0.028600254  0.028202403  0.033766977  0.090569634  0.021525805  0.022295198  0.027103488  0.070924492 
  205000   -1795510.7    10542.727    733.57384     76.89738    88.794136     81.13265    1399.6308  0.027760221  0.027622711  0.033873098   0.08925603  0.021104123  0.022319474   0.02681067  0.070234266 
  206000   -1795504.9    10517.021    314.19361     76.89738    88.794136     81.13265    1396.2182  0.028388306  0.027993493  0.033196329  0.089578128   0.02112725   0.02230558  0.026177827  0.069610656 
  207000   -1795526.1    10510.189    603.07592     76.89738    88.794136     81.13265    1395.3111  0.029505974  0.027826523  0.034631198  0.091963695  0.022114192    0.0219821  0.027803954  0.071900246 
  208000   -1795495.8    10542.942    826.07478     76.89738    88.794136     81.13265    1399.6593  0.028767911  0.027894945   0.03273003  0.089392887  0.021712225  0.021954171  0.025885637  0.069552033 
  209000   -1795528.4    10601.661    847.62391     76.89738    88.794136     81.13265    1407.4548  0.028425462  0.028069633  0.033850296  0.090345391  0.021778877  0.022120577  0.027259634  0.071159088 
  210000   -1795538.3    10540.156    399.27335     76.89738    88.794136     81.13265    1399.2894  0.028671814  0.028059403  0.033299278  0.090030495  0.021712065  0.022129241  0.026200169  0.070041475 
  211000     -1795522    10568.402    288.33411     76.89738    88.794136     81.13265    1403.0393   0.02899716   0.02837838   0.03334455  0.090720089  0.021330071  0.021709383  0.026634161  0.069673615 
  212000   -1795537.8    10479.008    322.01578     76.89738    88.794136     81.13265    1391.1716  0.028532291  0.028356283  0.033690357  0.090578931  0.021579923  0.022653964  0.026889485  0.071123373 
  213000     -1795580    10482.548    304.60899     76.89738    88.794136     81.13265    1391.6415  0.028601511  0.028017316  0.033038193   0.08965702  0.021535522  0.022297986  0.026130104  0.069963612 
  214000   -1795496.4    10536.326    345.14633     76.89738    88.794136     81.13265     1398.781  0.028918146  0.028008097  0.034117469  0.091043712  0.021556172  0.022484124  0.027202101  0.071242397 
  215000   -1795539.7    10562.977    467.01146     76.89738    88.794136     81.13265    1402.3191  0.028050165  0.028769346  0.033649545  0.090469056  0.021205439   0.02239712  0.026385683  0.069988242 
  216000   -1795469.2    10600.818    879.05334     76.89738    88.794136     81.13265    1407.3429  0.028101329  0.027904176  0.034257377  0.090262882  0.021511092   0.02187208  0.027408139  0.070791312 
  217000   -1795513.5    10526.458    792.87518     76.89738    88.794136     81.13265    1397.4709  0.027841959  0.027450086   0.03312915  0.088421195  0.021516602  0.022202726  0.026334156  0.070053485 
  218000   -1795554.8    10533.585    679.58891     76.89738    88.794136     81.13265    1398.4172  0.027956906  0.028343064   0.03258669   0.08888666  0.021009148  0.022453905  0.025723514  0.069186566 
  219000   -1795564.4    10510.688    250.01762     76.89738    88.794136     81.13265    1395.3773  0.028243644  0.028677215  0.033888395  0.090809255  0.021487797  0.023257684  0.027345157  0.072090638 
  220000   -1795467.6    10551.639    619.56078     76.89738    88.794136     81.13265    1400.8139  0.029092628  0.028303913  0.034110375  0.091506916   0.02212373  0.022514584  0.026581352  0.071219666 
  221000   -1795459.4    10592.232    1051.8543     76.89738    88.794136     81.13265     1406.203  0.029156211  0.028706815  0.034085587  0.091948613  0.022284949  0.022730653  0.026684068   0.07169967 
  222000   -1795528.2    10530.658    516.79392     76.89738    88.794136     81.13265    1398.0286  0.028908172  0.028647044  0.033149245   0.09070446  0.021812693  0.022376033  0.026110801  0.070299527 
  223000   -1795543.2    10533.762    297.91917     76.89738    88.794136     81.13265    1398.4407  0.028411822  0.028334823  0.034513743  0.091260388   0.02125502  0.022475798  0.027393897  0.071124715 
  224000   -1795522.6     10589.05    601.64255     76.89738    88.794136     81.13265    1405.7806   0.02804032    0.0281427  0.032963577  0.089146597  0.021282181  0.022309347  0.025959143  0.069550671 
  225000   -1795489.9    10599.336    911.34938     76.89738    88.794136     81.13265    1407.1461  0.028621737  0.028489834  0.033559087  0.090670658  0.021642476  0.022652793   0.02618953  0.070484799 
  226000     -1795461    10583.339    949.94478     76.89738    88.794136     81.13265    1405.0223  0.028465491  0.028678601   0.03420936  0.091353452  0.021502893  0.022602356  0.027192851    0.0712981 
  227000   -1795510.1    10583.343    572.62277     76.89738    88.794136     81.13265    1405.0229  0.028052779  0.028560201  0.033898858  0.090511838  0.021395289  0.022064207  0.026713074  0.070172571 
  228000   -1795463.9    10509.488    555.89312     76.89738    88.794136     81.13265    1395.2181  0.028159521  0.028720446  0.033632172  0.090512139  0.021500132  0.022427768  0.026790403  0.070718303 
  229000   -1795487.1      10563.4    750.57629     76.89738    88.794136     81.13265    1402.3753   0.02924538  0.029312996  0.033779242  0.092337618  0.021984753  0.022919728  0.026613268  0.071517749 
  230000   -1795572.4    10561.388     303.8614     76.89738    88.794136     81.13265    1402.1082  0.028417455  0.029247216  0.034005942  0.091670612  0.021364825   0.02323023  0.026988562  0.071583618 
  231000   -1795513.6    10514.722    101.16543     76.89738    88.794136     81.13265    1395.9129  0.028212301  0.029148534  0.034129285  0.091490121  0.021486826  0.022858337   0.02686171  0.071206874 
  232000     -1795502    10538.769    890.88672     76.89738    88.794136     81.13265    1399.1054  0.028341564  0.028244017  0.033710595  0.090296177  0.021800071  0.022682252  0.027004392  0.071486716 
  233000     -1795510    10545.707    477.78091     76.89738    88.794136     81.13265    1400.0265  0.028080901  0.028422144  0.033156863  0.089659908  0.020728393  0.022428089  0.026140001  0.069296483 
  234000   -1795556.2    10590.808    170.36287     76.89738    88.794136     81.13265     1406.014  0.028996507  0.028072025  0.034153383  0.091221916  0.021803266  0.022113859  0.027002363  0.070919489 
  235000   -1795519.6    10518.622    908.26687     76.89738    88.794136     81.13265    1396.4306  0.028796954  0.028404855  0.033586436  0.090788245   0.02160736  0.022918028  0.026918865  0.071444253 
  236000   -1795495.7    10574.666    640.60741     76.89738    88.794136     81.13265     1403.871  0.028350481   0.02791893  0.034289081  0.090558492  0.021256548  0.022062339  0.027520382  0.070839269 
  237000   -1795509.4    10547.049     585.8003     76.89738    88.794136     81.13265    1400.2046  0.028458946  0.027645744  0.033916337  0.090021027  0.021325293  0.022347063  0.026931664   0.07060402 
  238000   -1795465.5    10515.803    646.38174     76.89738    88.794136     81.13265    1396.0564  0.028276206  0.027563752  0.033746836  0.089586794  0.021515992  0.021963137  0.027060551   0.07053968 
  239000   -1795460.2    10605.796    1365.1098     76.89738    88.794136     81.13265    1408.0037  0.028783057  0.027546577  0.033356598  0.089686232  0.021693314  0.022278398  0.026473993  0.070445704 
  240000   -1795471.4    10540.002    465.86791     76.89738    88.794136     81.13265    1399.2691   0.02884864  0.027822482  0.033216446  0.089887568  0.021711102  0.022318741   0.02676249  0.070792333 
  241000   -1795470.4    10603.365    834.30269     76.89738    88.794136     81.13265     1407.681  0.028570207  0.027811523  0.033228903  0.089610633  0.021644251  0.022468357  0.026639501   0.07075211 
  242000     -1795541    10590.527    201.30758     76.89738    88.794136     81.13265    1405.9766   0.02843109  0.027568636  0.033835655  0.089835381  0.021407273  0.022534969  0.026663574  0.070605816 
  243000   -1795498.7     10548.76    891.13362     76.89738    88.794136     81.13265    1400.4317  0.027872907  0.027621157  0.033823693  0.089317757  0.021410083  0.021954516  0.026450973  0.069815573 
  244000     -1795410    10499.041    1209.7669     76.89738    88.794136     81.13265    1393.8311  0.028172462  0.028359741  0.033742736  0.090274939   0.02199978  0.022504572  0.027035212  0.071539564 
  245000   -1795488.7    10612.708    670.75513     76.89738    88.794136     81.13265    1408.9213  0.027460684  0.028171634  0.034400547  0.090032864  0.021356172  0.022599733  0.026686138  0.070642043 
  246000   -1795478.2    10530.919    920.11904     76.89738    88.794136     81.13265    1398.0633  0.027940459  0.027979051  0.033608325  0.089527835  0.021806957  0.022565112  0.026787058  0.071159127 
  247000   -1795494.1    10589.499    669.96914     76.89738    88.794136     81.13265    1405.8402  0.027897063  0.027996736  0.033706678  0.089600476  0.021419726  0.022672213  0.026979824  0.071071763 
  248000   -1795450.8    10586.259    1063.4613     76.89738    88.794136     81.13265    1405.4101  0.027894798  0.028623102   0.03351371   0.09003161  0.021595757  0.023090412  0.026448379  0.071134548 
  249000   -1795522.4     10522.36    748.46357     76.89738    88.794136     81.13265    1396.9269  0.028210909  0.028339042  0.033809401  0.090359352  0.021855958  0.022370169   0.02685254  0.071078667 
  250000   -1795479.5    10538.328    377.55895     76.89738    88.794136     81.13265    1399.0468   0.02871273  0.028156059  0.033069817  0.089938606  0.021536809  0.022677715  0.026661872  0.070876397 
  251000     -1795561    10538.197    71.406894     76.89738    88.794136     81.13265    1399.0294  0.028850301  0.027531131  0.033650877  0.090032309  0.021813793  0.022505676  0.026724842   0.07104431 
  252000   -1795479.1    10536.778    518.39245     76.89738    88.794136     81.13265     1398.841  0.027962468  0.028240841  0.032867738  0.089071048  0.021406736  0.022233235  0.026099123  0.069739093 
  253000     -1795479    10541.879    810.02665     76.89738    88.794136     81.13265    1399.5182  0.028037358  0.028575156  0.033927665  0.090540179  0.021395845  0.023227831  0.026528039  0.071151714 
  254000   -1795534.1    10555.757    128.74384     76.89738    88.794136     81.13265    1401.3607  0.028292405   0.02782542  0.034258394  0.090376219  0.021405986  0.022812924  0.027320378  0.071539288 
  255000   -1795474.7    10478.851    734.90854     76.89738    88.794136     81.13265    1391.1508   0.02861228   0.02883465  0.034119963  0.091566894  0.021612198  0.023218247  0.026955296   0.07178574 
  256000   -1795542.3    10527.387    361.05415     76.89738    88.794136     81.13265    1397.5943  0.028780272  0.027904837  0.033734573  0.090419681  0.021545483  0.022774368  0.026589033  0.070908884 
  257000   -1795508.8     10545.81    463.94537     76.89738    88.794136     81.13265      1400.04  0.028459126  0.027378378  0.032981955  0.088819459   0.02111097  0.022236841  0.026208274  0.069556085 
  258000   -1795544.3    10573.159    860.33672     76.89738    88.794136     81.13265    1403.6708  0.028170697  0.027959715    0.0331407  0.089271112  0.021212795   0.02287066  0.026379961  0.070463415 
  259000   -1795473.6    10597.349    619.70217     76.89738    88.794136     81.13265    1406.8823  0.028895677  0.027881393  0.033617246  0.090394315  0.021512939  0.022447178  0.027590978  0.071551095 
  260000   -1795492.3    10545.035    757.48451     76.89738    88.794136     81.13265    1399.9372   0.02916842  0.028621181  0.033871272  0.091660873  0.022476122  0.023305474  0.026835768  0.072617364 
  261000   -1795420.1    10499.414    567.22292     76.89738    88.794136     81.13265    1393.8806  0.028374087  0.027783433  0.033778098  0.089935618  0.021520891  0.022641886  0.027078819  0.071241596 
  262000   -1795476.2    10524.672     269.3798     76.89738    88.794136     81.13265    1397.2339  0.028198595  0.028160516  0.034204177  0.090563289  0.021623814  0.022771573  0.026720589  0.071115977 
  263000   -1795473.6    10555.068    551.48305     76.89738    88.794136     81.13265    1401.2691  0.028493903  0.028444948  0.033217122  0.090155973  0.022372552  0.022463982  0.026308942  0.071145477 
  264000   -1795533.9    10532.376   -80.817293     76.89738    88.794136     81.13265    1398.2567  0.028292638  0.027854902  0.033816883  0.089964424  0.021434455  0.022594716  0.027036234  0.071065405 
  265000   -1795477.1    10549.735     442.0199     76.89738    88.794136     81.13265    1400.5612  0.028330704  0.028479706  0.033488518  0.090298928  0.021742736  0.023004292  0.026785225  0.071532253 
  266000   -1795451.1    10618.596    1245.1502     76.89738    88.794136     81.13265     1409.703  0.028999884  0.028579504  0.033537184  0.091116572   0.02183126  0.023373384  0.026622423  0.071827068 
  267000   -1795518.5     10520.02    591.47646     76.89738    88.794136     81.13265    1396.6163  0.028388806  0.028647709   0.03316329  0.090199805   0.02152469  0.023037174  0.026255976   0.07081784 
  268000   -1795483.5      10526.8    396.34761     76.89738    88.794136     81.13265    1397.5163  0.028603913  0.028146548  0.034334545  0.091085006  0.021425656  0.022640432   0.02748804  0.071554129 
  269000   -1795528.6    10506.484   -63.174651     76.89738    88.794136     81.13265    1394.8193   0.02810407  0.028243051  0.032800706  0.089147827  0.021154175  0.022713808  0.026135892  0.070003875 
  270000   -1795565.9    10579.417    555.69597     76.89738    88.794136     81.13265    1404.5016  0.028824556  0.027810413  0.033525583  0.090160552  0.021763016  0.022308197  0.026658995  0.070730208 
  271000   -1795540.2    10562.253    335.78076     76.89738    88.794136     81.13265     1402.223  0.028963281  0.028440632    0.0339537  0.091357612  0.022073756    0.0226701  0.026759455   0.07150331 
  272000   -1795494.8    10545.164    542.01066     76.89738    88.794136     81.13265    1399.9544  0.028779417  0.029025017  0.033390391  0.091194824  0.021660183  0.023366203  0.026459363  0.071485749 
  273000   -1795538.1     10580.94    660.74654     76.89738    88.794136     81.13265    1404.7039  0.028352617  0.028235482  0.033481267  0.090069365   0.02160371   0.02280131  0.026695227  0.071100247 
  274000   -1795485.7    10558.627    729.56637     76.89738    88.794136     81.13265    1401.7417  0.028684296  0.027751713  0.034393683  0.090829692  0.021929728  0.022637873   0.02764168  0.072209282 
  275000     -1795498    10503.501    915.08538     76.89738    88.794136     81.13265    1394.4233  0.028466934   0.02828624  0.034006472  0.090759646  0.021795782  0.023187043  0.026982202  0.071965027 
  276000   -1795476.1    10535.014    888.29092     76.89738    88.794136     81.13265    1398.6068  0.028232162  0.027812325  0.033955417  0.089999905  0.021341825  0.021996719  0.027127581  0.070466125 
  277000     -1795483    10503.261      706.104     76.89738    88.794136     81.13265    1394.3914  0.028193126  0.027468961  0.033468711  0.089130798  0.021548284  0.022424448  0.026606813  0.070579545 
  278000   -1795486.3     10567.78     652.1794     76.89738    88.794136     81.13265    1402.9568  0.028928927  0.027411899  0.033089669  0.089430495   0.02177332  0.022196559  0.026158528  0.070128407 
  279000   -1795439.1    10512.078    910.70177     76.89738    88.794136     81.13265    1395.5619  0.028782895  0.027915051  0.033623196  0.090321142  0.021674572  0.022865471  0.026974269  0.071514311 
  280000   -1795511.5    10549.333    840.42462     76.89738    88.794136     81.13265    1400.5078  0.028884489   0.02796685  0.033605759  0.090457098  0.021543016  0.022687205  0.026917703  0.071147924 
  281000   -1795472.8    10506.822    575.11431     76.89738    88.794136     81.13265    1394.8641   0.02843378  0.027419593   0.03394743  0.089800803   0.02148303  0.022450731  0.026842088  0.070775849 
  282000   -1795480.8    10582.364    767.22741     76.89738    88.794136     81.13265     1404.893  0.028909078  0.029046046   0.03386212  0.091817244  0.021704087  0.023376135  0.026383849   0.07146407 
  283000   -1795509.4    10532.265     778.7723     76.89738    88.794136     81.13265    1398.2418  0.028989275  0.028066498  0.034375297   0.09143107  0.021463694   0.02256856  0.027452562  0.071484815 
  284000   -1795517.8    10571.788    709.04256     76.89738    88.794136     81.13265    1403.4889  0.028304367  0.028165313  0.033294612  0.089764292   0.02131373  0.022346317   0.02583136  0.069491407 
  285000   -1795478.6    10597.872    903.91214     76.89738    88.794136     81.13265    1406.9517  0.028980246  0.028383658  0.034199023  0.091562927  0.022164723  0.022812092  0.026978579  0.071955395 
  286000   -1795562.9    10623.394    249.30557     76.89738    88.794136     81.13265      1410.34    0.0284056  0.029114302  0.032882193  0.090402095  0.021546247  0.022816481  0.026229649  0.070592377 
  287000   -1795562.3    10605.219    192.25889     76.89738    88.794136     81.13265    1407.9271    0.0279538  0.028304686  0.033248394   0.08950688  0.021190613  0.022557195  0.025956606  0.069704414 
  288000   -1795585.2    10614.664    947.04327     76.89738    88.794136     81.13265     1409.181  0.028557892  0.028812276  0.033397034  0.090767203  0.021884458  0.022384774  0.026201483  0.070470715 
  289000   -1795522.9    10522.552    641.30866     76.89738    88.794136     81.13265    1396.9524  0.028566155  0.028620686  0.033731118  0.090917959  0.021587192  0.023071236   0.02651206  0.071170488 
  290000   -1795493.7    10522.333    586.28574     76.89738    88.794136     81.13265    1396.9234  0.028649493   0.02844972  0.032881603  0.089980816  0.021893637  0.022555703  0.026176382  0.070625722 
  291000   -1795536.8    10552.399    587.95709     76.89738    88.794136     81.13265    1400.9149  0.028938806  0.028432236  0.033459958     0.090831  0.022090973  0.022454712  0.026385219  0.070930904 
  292000   -1795516.5    10533.695     529.5023     76.89738    88.794136     81.13265    1398.4317  0.028452932  0.028902989   0.03317794  0.090533861  0.021632114  0.023030875  0.026275641  0.070938629 
  293000   -1795563.9      10581.7    111.33993     76.89738    88.794136     81.13265    1404.8047  0.028446143  0.028591279  0.033461161  0.090498583  0.021736736  0.023049977  0.026771053  0.071557766 
  294000   -1795480.8    10574.176    750.22924     76.89738    88.794136     81.13265    1403.8059  0.028085923   0.02893431  0.033708301  0.090728535  0.021451917  0.023148199  0.026816862  0.071416978 
  295000   -1795527.7    10580.071    357.17159     76.89738    88.794136     81.13265    1404.5885  0.028525811  0.028114195  0.032778208  0.089418214  0.021883368  0.022240084  0.025815826  0.069939277 
  296000   -1795579.1    10516.822    380.46104     76.89738    88.794136     81.13265    1396.1917  0.028284986  0.027864404  0.034050764  0.090200154  0.021541037  0.022534291  0.026628113  0.070703441 
  297000   -1795528.7    10497.115    300.54444     76.89738    88.794136     81.13265    1393.5755  0.028546239  0.028035199  0.033851622  0.090433061  0.021584291  0.023210652  0.026586508  0.071381452 
  298000   -1795468.8    10585.931    983.94603     76.89738    88.794136     81.13265    1405.3665  0.029010561  0.027592416  0.033898777  0.090501755  0.021768728  0.022528626  0.026405618  0.070702972 
  299000   -1795508.3    10489.737    670.83489     76.89738    88.794136     81.13265    1392.5959  0.029065184  0.028696918  0.034324431  0.092086533  0.022372908  0.023910791  0.026766351   0.07305005 
  300000   -1795559.5    10537.034    177.70494     76.89738    88.794136     81.13265     1398.875  0.027716324  0.027405471  0.034067079  0.089188873  0.021300059    0.0225256  0.027339478  0.071165137 
  301000   -1795489.3    10500.183    815.81746     76.89738    88.794136     81.13265    1393.9828  0.027752596  0.027818438  0.032817863  0.088388897  0.021700463  0.022629401  0.025840246   0.07017011 
  302000   -1795458.8    10525.249    798.81827     76.89738    88.794136     81.13265    1397.3104  0.028347606  0.028558445   0.03388498  0.090791031   0.02152604  0.023317191  0.027415795  0.072259025 
  303000   -1795520.5    10591.258    763.96434     76.89738    88.794136     81.13265    1406.0737  0.027611568  0.028474404  0.033948756  0.090034728  0.021338971  0.023071252  0.027036376  0.071446599 
  304000   -1795473.7    10517.013    347.43367     76.89738    88.794136     81.13265     1396.217  0.028737149  0.028787188   0.03420403  0.091728366  0.021391668  0.022820642  0.027337928  0.071550237 
  305000     -1795502    10551.215    921.07265     76.89738    88.794136     81.13265    1400.7577  0.028282938  0.028213636  0.034064998  0.090561573  0.021451465  0.022317436  0.027174891  0.070943792 
  306000   -1795464.1    10550.464    995.84713     76.89738    88.794136     81.13265     1400.658  0.028918235  0.028599766  0.034389838  0.091907839  0.021898562  0.022969265  0.028087138  0.072954965 
  307000   -1795474.8    10495.788    269.76276     76.89738    88.794136     81.13265    1393.3993  0.029187222  0.028899591  0.034037765  0.092124578  0.021892798   0.02318178  0.027138058  0.072212636 
  308000   -1795516.9    10520.748    968.35288     76.89738    88.794136     81.13265    1396.7129  0.028811233   0.02847122  0.033618154  0.090900607  0.021767659  0.022427164  0.026567117   0.07076194 
  309000   -1795477.2    10547.561    1038.1957     76.89738    88.794136     81.13265    1400.2726  0.028901807  0.028851996  0.034425305  0.092179108  0.021644272  0.022697269  0.027109003  0.071450544 
  310000     -1795551     10518.58      332.884     76.89738    88.794136     81.13265    1396.4251  0.029293574  0.028821769  0.033245807   0.09136115  0.022411842  0.022888327   0.02657326  0.071873429 
  311000   -1795484.9    10595.075    875.82447     76.89738    88.794136     81.13265    1406.5804   0.02856881  0.029103965  0.034660528  0.092333304  0.021839683  0.022587948  0.027241668  0.071669299 
  312000   -1795439.4    10519.704    689.78792     76.89738    88.794136     81.13265    1396.5744  0.028550774  0.028907709  0.034085288  0.091543771  0.021932872  0.022848673  0.027167704  0.071949249 
  313000   -1795526.6    10448.636    586.33053     76.89738    88.794136     81.13265    1387.1395  0.028525674  0.028448582  0.034406648  0.091380903  0.021347691  0.022463002  0.027135275  0.070945968 
  314000   -1795519.2    10503.882    416.07717     76.89738    88.794136     81.13265    1394.4738  0.029091096    0.0289476  0.033731311  0.091770007  0.022125498  0.022854684  0.026601436  0.071581619 
  315000   -1795539.3    10526.335     487.0734     76.89738    88.794136     81.13265    1397.4546  0.028255148  0.029010061  0.033540783  0.090805991  0.021568838  0.022787631  0.026656503  0.071012972 
  316000   -1795508.1    10534.106    1116.5319     76.89738    88.794136     81.13265    1398.4863   0.02860335  0.029099293  0.033882403  0.091585047  0.021647246  0.022928484  0.026778241  0.071353972 
  317000   -1795510.1    10583.431    715.08444     76.89738    88.794136     81.13265    1405.0346  0.029258402  0.029596936   0.03343461  0.092289948  0.022359305  0.023114689  0.026496015  0.071970009 
  318000   -1795513.9    10569.186    668.78355     76.89738    88.794136     81.13265    1403.1435  0.029194411   0.02860345  0.034332937  0.092130798  0.022145496   0.02295344  0.027249797  0.072348733 
  319000     -1795454     10569.99    647.12991     76.89738    88.794136     81.13265    1403.2502  0.028477366  0.028880079  0.033774288  0.091131733  0.021868852  0.022565769  0.026335713  0.070770334 
  320000   -1795466.5     10520.31    22.894674     76.89738    88.794136     81.13265    1396.6548  0.029111963  0.028704489   0.03298149  0.090797942  0.022408961  0.022510981  0.026086075  0.071006017 
  321000   -1795506.4    10512.949    837.68418     76.89738    88.794136     81.13265    1395.6776  0.029211943  0.029009805  0.033803873   0.09202562  0.021383843  0.022802755  0.026832083  0.071018681 
  322000   -1795462.5    10526.763    667.66119     76.89738    88.794136     81.13265    1397.5115  0.029250127  0.028552705  0.034239262  0.092042095  0.021962764   0.02257014  0.026734056  0.071266959 
  323000   -1795489.2    10497.562     332.4535     76.89738    88.794136     81.13265    1393.6348  0.028705215  0.028219795  0.034016834  0.090941844   0.02150221  0.022433511  0.027033184  0.070968905 
  324000   -1795493.4    10511.164    593.82931     76.89738    88.794136     81.13265    1395.4405   0.02876807  0.029124072  0.033382916  0.091275058  0.021718333  0.023184381  0.026282638  0.071185352 
  325000   -1795466.6    10569.181    729.70641     76.89738    88.794136     81.13265    1403.1428  0.028979362  0.029073881  0.034837316  0.092890559   0.02134827   0.02253688  0.027634762  0.071519912 
  326000   -1795485.3    10530.626    556.24081     76.89738    88.794136     81.13265    1398.0243  0.028912549  0.029199375  0.033723158  0.091835082  0.021572645  0.022624746  0.026352833  0.070550223 
  327000   -1795498.2    10496.393    841.03426     76.89738    88.794136     81.13265    1393.4796  0.028933832   0.02907035  0.033735014  0.091739196  0.021777896  0.022851774  0.025959859   0.07058953 
  328000   -1795509.5    10570.643    388.91832     76.89738    88.794136     81.13265    1403.3369  0.028922621  0.028653642  0.034769191  0.092345454  0.021340309  0.021969849   0.02749077  0.070800928 
  329000   -1795467.7    10557.824    989.51725     76.89738    88.794136     81.13265     1401.635  0.029526127  0.029123418  0.034388938  0.093038483  0.022495566  0.022856849  0.026591336  0.071943751 
  330000   -1795454.7    10603.849    653.01078     76.89738    88.794136     81.13265    1407.7452  0.029665838  0.028928081  0.034049295  0.092643214  0.022044769  0.022239293  0.026313795  0.070597857 
  331000   -1795494.8    10558.255    267.08377     76.89738    88.794136     81.13265    1401.6922  0.028932772  0.029678086  0.034585882   0.09319674  0.022002443  0.023023544  0.027284226  0.072310213 
  332000   -1795488.9    10553.942    461.52108     76.89738    88.794136     81.13265    1401.1197  0.028617283  0.029623336  0.034162998  0.092403618  0.021537258  0.022717212  0.026946205  0.071200674 
  333000     -1795460    10554.217    1024.6394     76.89738    88.794136     81.13265    1401.1562  0.029244879  0.029729616  0.034193976  0.093168471  0.022002071  0.023400686   0.02731828  0.072721037 
  334000   -1795556.3    10579.421    548.77466     76.89738    88.794136     81.13265    1404.5022  0.028734345  0.029098189  0.033709924  0.091542459  0.021775331  0.022790314  0.026581578  0.071147223 
  335000     -1795534     10533.17    346.02349     76.89738    88.794136     81.13265     1398.362  0.028772217  0.028953201  0.034274292  0.091999709  0.021463258  0.022766833  0.026784821  0.071014912 
  336000   -1795457.1      10490.1    1271.1198     76.89738    88.794136     81.13265    1392.6441  0.029259226  0.028868985  0.033923214  0.092051426  0.022167356  0.022531449  0.025828653  0.070527457 
  337000   -1795485.5    10546.719    910.59843     76.89738    88.794136     81.13265    1400.1608   0.02877935  0.028479643  0.034478031  0.091737024  0.021494283  0.022323108   0.02693338  0.070750771 
  338000   -1795501.8    10590.144    688.12395     76.89738    88.794136     81.13265    1405.9258  0.028614455  0.028756166  0.034293139   0.09166376  0.021451834  0.022580941  0.026465041  0.070497816 
  339000   -1795505.5    10501.924    448.16535     76.89738    88.794136     81.13265    1394.2138  0.028456735  0.029482452  0.033889422  0.091828609  0.021308593  0.022870307  0.026364586  0.070543486 
  340000   -1795555.2    10475.915     283.8003     76.89738    88.794136     81.13265     1390.761  0.028915399  0.028775868  0.034496125  0.092187392  0.021895462  0.022533731  0.027476645  0.071905838 
  341000   -1795494.7    10604.018    1012.2604     76.89738    88.794136     81.13265    1407.7677  0.028939921  0.028715507  0.033860263  0.091515691  0.022078662  0.022620435  0.026188553   0.07088765 
  342000   -1795550.2    10542.756    504.06921     76.89738    88.794136     81.13265    1399.6347  0.028857439  0.029421604  0.033843755  0.092122797  0.022161807  0.022762073  0.026523092  0.071446972 
  343000   -1795510.9    10611.133    671.24375     76.89738    88.794136     81.13265    1408.7122  0.029185619  0.028267964   0.03422172  0.091675303  0.022089359   0.02259277  0.026859176  0.071541305 
  344000   -1795420.6    10563.901    919.08326     76.89738    88.794136     81.13265    1402.4419  0.029411187  0.028676106  0.033603519  0.091690813   0.02202279  0.022687839  0.026197379  0.070908008 
  345000   -1795485.7    10506.477    613.48929     76.89738    88.794136     81.13265    1394.8184  0.028926105  0.028590537  0.033969789  0.091486431  0.021612448  0.022579598  0.026841986  0.071034032 
  346000   -1795470.5    10588.225    1145.1079     76.89738    88.794136     81.13265     1405.671  0.029116343  0.028799067  0.034255329  0.092170739  0.021498612  0.022632817  0.026462096  0.070593526 
  347000   -1795546.9    10558.556    358.26308     76.89738    88.794136     81.13265    1401.7322   0.02954474  0.029199589  0.033885054  0.092629383  0.022394423  0.022559969  0.026034651  0.070989043 
  348000   -1795486.6    10519.341    796.19094     76.89738    88.794136     81.13265    1396.5262  0.029054508  0.029508868  0.033807815  0.092371191  0.021692013  0.023008442  0.026275605   0.07097606 
  349000   -1795520.5    10526.519    597.29713     76.89738    88.794136     81.13265    1397.4791  0.028304472  0.029095307  0.033933377  0.091333156  0.021284751   0.02307033  0.026544691  0.070899773 
  350000   -1795549.6    10573.019    2.1295648     76.89738    88.794136     81.13265    1403.6523  0.028937748  0.029203526  0.033471826    0.0916131  0.021393857  0.023150763  0.026741844  0.071286463 
  351000   -1795527.8    10488.817    808.46165     76.89738    88.794136     81.13265    1392.4739  0.028613169  0.029171786  0.034824646  0.092609601  0.021716126  0.023008189  0.026990302  0.071714617 
  352000     -1795488    10546.955    591.17803     76.89738    88.794136     81.13265    1400.1921  0.029210805  0.029633233  0.034239615  0.093083652  0.021803236  0.023324013  0.026744105  0.071871354 
  353000   -1795468.3      10565.3    744.02268     76.89738    88.794136     81.13265    1402.6275  0.028770718  0.028643404  0.034426873  0.091840995  0.021592066  0.022415621  0.027277825  0.071285512 
  354000   -1795501.6     10530.76     620.8413     76.89738    88.794136     81.13265    1398.0421  0.028981693  0.029745171  0.035207002  0.093933867  0.021997705  0.023225567   0.02753295  0.072756222 
  355000     -1795507    10587.907    1022.0299     76.89738    88.794136     81.13265    1405.6289  0.029053518  0.029973887   0.03375612  0.092783526  0.021951858  0.023256513  0.026725874  0.071934245 
  356000   -1795521.8    10533.437    542.84173     76.89738    88.794136     81.13265    1398.3975  0.028314403  0.029663256  0.035090872  0.093068531  0.021111754  0.022732152  0.028015083  0.071858989 
  357000   -1795442.2    10515.011    487.87492     76.89738    88.794136     81.13265    1395.9513  0.029250575  0.030383351  0.033924711  0.093558638  0.022133394   0.02386568  0.026867113  0.072866188 
  358000   -1795459.1    10523.354    873.29717     76.89738    88.794136     81.13265    1397.0589  0.028662073  0.029428311  0.034308571  0.092398955  0.021755547  0.022748062  0.027483645  0.071987254 
  359000   -1795543.1     10606.45    768.68028     76.89738    88.794136     81.13265    1408.0905  0.028626932  0.029622696  0.034242667  0.092492295  0.021441131  0.023550933  0.027538729  0.072530793 
  360000   -1795475.9    10509.443    526.70688     76.89738    88.794136     81.13265    1395.2121  0.028536673  0.029443392  0.033760902  0.091740967  0.021966259  0.022798454  0.026608698  0.071373411 
  361000   -1795552.9    10541.051    379.51402     76.89738    88.794136     81.13265    1399.4083  0.028907685  0.030401536  0.034424371  0.093733592  0.022039334  0.023047412   0.02671018  0.071796926 
  362000   -1795477.3    10575.171    1035.2382     76.89738    88.794136     81.13265     1403.938  0.027723262  0.029886977  0.034443054  0.092053293  0.021270753  0.023126806  0.027287633  0.071685192 
  363000   -1795505.8    10571.521    684.82081     76.89738    88.794136     81.13265    1403.4534  0.028199626  0.030063089  0.034549608  0.092812323  0.021210382  0.023045699  0.027479268  0.071735348 
  364000   -1795564.4    10577.271    440.35239     76.89738    88.794136     81.13265    1404.2168  0.028015308  0.029379022  0.033796847  0.091191177  0.021269397   0.02248692   0.02695526  0.070711577 
  365000   -1795587.5     10589.73   -66.672093     76.89738    88.794136     81.13265    1405.8708  0.028589902  0.029321157  0.034087304  0.091998363  0.021778639  0.022602009  0.026436666  0.070817313 
  366000   -1795463.4    10543.943    780.10107     76.89738    88.794136     81.13265    1399.7922  0.029052881  0.028702236  0.034794385  0.092549501  0.022251014  0.022685146  0.027258843  0.072195004 
  367000   -1795500.1    10555.173    560.06672     76.89738    88.794136     81.13265    1401.2831  0.029035947  0.028558296  0.032771055  0.090365299  0.021879441  0.022133605  0.025842777  0.069855823 
  368000   -1795542.2    10554.247    440.05213     76.89738    88.794136     81.13265    1401.1601  0.029415088  0.029554944  0.034815391  0.093785423  0.022479577  0.022888877  0.027748252  0.073116706 
  369000   -1795503.7    10570.134    680.60441     76.89738    88.794136     81.13265    1403.2693  0.028247483  0.029369617  0.033441607  0.091058708   0.02157984  0.023234835  0.026524211  0.071338886 
  370000     -1795505    10541.018    728.50337     76.89738    88.794136     81.13265     1399.404  0.029160961  0.029150842  0.034279271  0.092591073  0.021890938  0.022578999   0.02733087  0.071800807 
  371000   -1795426.2     10531.75    786.40695     76.89738    88.794136     81.13265    1398.1735  0.028757614  0.029638775  0.033370639  0.091767028  0.021948656  0.022893165  0.026628153  0.071469974 
  372000   -1795538.7    10576.491    659.31022     76.89738    88.794136     81.13265    1404.1132  0.029134139  0.029727081  0.034194118  0.093055338  0.021777744  0.023112297  0.026733605  0.071623647 
  373000   -1795427.7    10465.571    516.71721     76.89738    88.794136     81.13265    1389.3878  0.029637765  0.028990711  0.034490029  0.093118504  0.022443286  0.022796072  0.027706915  0.072946272 
  374000   -1795452.2    10565.293    833.38081     76.89738    88.794136     81.13265    1402.6266  0.029272562  0.030167693  0.033721349  0.093161603  0.021887467  0.023719846  0.026511614  0.072118927 
  375000   -1795487.7    10524.342    380.53728     76.89738    88.794136     81.13265    1397.1901  0.029561502  0.029487365  0.034976506  0.094025373  0.021966641  0.023584734   0.02828571  0.073837085 
  376000   -1795547.1    10533.345    234.26809     76.89738    88.794136     81.13265    1398.3853  0.029647374  0.029581607  0.032737736  0.091966717  0.022333812  0.023457388  0.025892022  0.071683223 
  377000   -1795571.2    10546.432    334.68226     76.89738    88.794136     81.13265    1400.1226  0.029114975   0.02893841  0.034714109  0.092767494  0.021979043  0.023011643  0.027207361  0.072198047 
  378000   -1795484.3    10506.281    374.48377     76.89738    88.794136     81.13265    1394.7923  0.028672773  0.028902446  0.034210929  0.091786148   0.02199575  0.023091629  0.026891546  0.071978925 
[...]
  907000   -1795518.1     10602.27    679.75316     76.89738    88.794136     81.13265    1407.5356  0.029586154   0.02787795  0.034946986   0.09241109  0.022850306  0.023575962  0.027959957  0.074386225 
  908000   -1795432.6    10540.415    535.17189     76.89738    88.794136     81.13265    1399.3238  0.030284222  0.028657537  0.033943738  0.092885497   0.02306932  0.024298044  0.026844195  0.074211559 
  909000   -1795517.7    10510.248    176.30147     76.89738    88.794136     81.13265     1395.319  0.029735221  0.028274573  0.034967662  0.092977456  0.022770144  0.024360165  0.028283609  0.075413918 
  910000   -1795510.4    10547.207    357.63195     76.89738    88.794136     81.13265    1400.2256  0.030280262  0.028062433   0.03387177  0.092214465  0.022903194  0.024018602  0.026513388  0.073435184 
  911000   -1795468.6    10466.438    339.64326     76.89738    88.794136     81.13265    1389.5028   0.03036813  0.028051082  0.034004433  0.092423645  0.023142975   0.02407633  0.027027564  0.074246868 
  912000   -1795522.3    10586.349    756.78211     76.89738    88.794136     81.13265     1405.422  0.030217177  0.028467344  0.034926925  0.093611447  0.022453086  0.024475346  0.027713853  0.074642284 
  913000   -1795517.9    10532.275    391.08633     76.89738    88.794136     81.13265    1398.2432  0.030079965  0.028387834  0.033516768  0.091984567  0.022538246  0.024192608  0.026374897  0.073105751 
  914000   -1795553.3     10573.91     324.4542     76.89738    88.794136     81.13265    1403.7706  0.030411724  0.028760203  0.035361579  0.094533505  0.023132406  0.024549065  0.028118722  0.075800192 
  915000     -1795523    10602.511    634.95719     76.89738    88.794136     81.13265    1407.5676   0.03022409  0.028606621  0.034654461  0.093485171  0.022959947  0.024369682  0.027418627  0.074748256 
  916000   -1795450.2      10520.8    408.35002     76.89738    88.794136     81.13265    1396.7198  0.029880281  0.028675329  0.035606774  0.094162384  0.023058454  0.024095275  0.028073463  0.075227192 
  917000   -1795489.8    10590.804    1031.8889     76.89738    88.794136     81.13265    1406.0134   0.02944545  0.029052788  0.034163435  0.092661672  0.022440979   0.02411148  0.026620097  0.073172555 
  918000   -1795473.6    10530.765    710.95884     76.89738    88.794136     81.13265    1398.0427   0.03000644  0.028777687  0.034113934  0.092898061  0.022817781   0.02442662  0.027308515  0.074552916 
  919000   -1795513.3    10530.075    517.80148     76.89738    88.794136     81.13265    1397.9512  0.030198124  0.029094873  0.035471654   0.09476465  0.022478185  0.024279329  0.028571533  0.075329047 
  920000   -1795517.2    10521.684    593.50595     76.89738    88.794136     81.13265    1396.8372   0.02960136  0.028446465  0.033824604  0.091872429  0.022158572  0.023797587  0.026354249  0.072310408 
  921000   -1795505.4    10509.814    870.50965     76.89738    88.794136     81.13265    1395.2613   0.02972988  0.028639344  0.034981194  0.093350418  0.022801605  0.023758972  0.027803412  0.074363989 
  922000   -1795495.7    10618.827    1147.1395     76.89738    88.794136     81.13265    1409.7337  0.029443525   0.02896927  0.034672129  0.093084924  0.022616171  0.024049338  0.027689155  0.074354664 
  923000   -1795531.2    10569.644    730.75374     76.89738    88.794136     81.13265    1403.2043  0.029531899  0.029129254  0.034969375  0.093630528  0.022655186  0.023818971  0.027221839  0.073695996 
  924000   -1795511.8    10562.015    1098.4784     76.89738    88.794136     81.13265    1402.1915  0.029820533  0.029290479   0.03426693  0.093377943  0.022920329  0.024198476  0.027345414  0.074464219 
  925000     -1795516    10490.111    638.23564     76.89738    88.794136     81.13265    1392.6457  0.030125347   0.02917442  0.034203387  0.093503154  0.022728604  0.024202283  0.027277503   0.07420839 
  926000     -1795506    10582.239    637.13245     76.89738    88.794136     81.13265    1404.8764  0.029897058  0.029031311  0.034822842  0.093751212  0.023242473  0.024010395   0.02752498  0.074777848 
  927000   -1795509.3    10579.521    590.28898     76.89738    88.794136     81.13265    1404.5155   0.02950021  0.028606496  0.033851593    0.0919583  0.022418299   0.02340241  0.026769113  0.072589821 
  928000   -1795513.8    10564.505    1073.9948     76.89738    88.794136     81.13265     1402.522  0.029560492  0.029181558  0.035473697  0.094215746  0.022869579  0.024140437  0.028822999  0.075833015 
  929000   -1795484.7    10521.501    694.62186     76.89738    88.794136     81.13265    1396.8128  0.030050905  0.029495131  0.033897913  0.093443948  0.023133821  0.024655858  0.026841098  0.074630776 
  930000   -1795476.8    10504.258    636.98916     76.89738    88.794136     81.13265    1394.5238  0.029697266  0.029350045  0.034674982  0.093722293  0.022978111  0.024662014  0.028012764  0.075652889 
  931000   -1795510.4    10537.602    329.14641     76.89738    88.794136     81.13265    1398.9504  0.029501587  0.029445137  0.035043866   0.09399059   0.02240774  0.024267154  0.027815996   0.07449089 
  932000   -1795516.5    10548.635    431.69328     76.89738    88.794136     81.13265    1400.4151  0.029506279  0.029107253  0.034140667  0.092754198  0.022143874  0.024386667  0.027006731  0.073537272 
  933000   -1795529.1    10505.522      662.088     76.89738    88.794136     81.13265    1394.6915  0.029730493  0.029404383  0.034449518  0.093584395  0.022503273  0.024151824  0.027389749  0.074044846 
  934000   -1795484.3    10546.509    457.84367     76.89738    88.794136     81.13265    1400.1329  0.029604523  0.029049181  0.035097448  0.093751152  0.022846877  0.024193605  0.027771301  0.074811782 
  935000   -1795528.2    10609.071    988.43947     76.89738    88.794136     81.13265    1408.4385  0.030043277  0.029719318  0.035237268  0.094999864  0.022923252  0.024560762  0.027814818  0.075298832 
  936000   -1795535.6     10523.82    716.32098     76.89738    88.794136     81.13265    1397.1208  0.029678782  0.029497464  0.033678353  0.092854599  0.023057405  0.024075201  0.026626058  0.073758665 
  937000   -1795484.2    10571.185     609.5387     76.89738    88.794136     81.13265    1403.4088  0.029869224  0.029007929  0.034919807  0.093796961  0.022475669  0.023720482  0.027587382  0.073783533 
  938000   -1795573.6    10574.408    588.13387     76.89738    88.794136     81.13265    1403.8368  0.029030108   0.02945575   0.03392209  0.092407948  0.022353502   0.02412113  0.026843279  0.073317911 
  939000   -1795551.8    10464.573    -7.289216     76.89738    88.794136     81.13265    1389.2552  0.029736599  0.028649766  0.034523355   0.09290972  0.022841225  0.023569545   0.02759494   0.07400571 
  940000   -1795462.6    10566.683    1253.3342     76.89738    88.794136     81.13265    1402.8111  0.029820266  0.029464831  0.034957631  0.094242728  0.022917444  0.024488332  0.027913103  0.075318879 
  941000   -1795497.2     10585.53      812.687     76.89738    88.794136     81.13265    1405.3132  0.029563443  0.029055209  0.034257104  0.092875756    0.0227607  0.023893812  0.027370827  0.074025338 
  942000   -1795451.8    10564.891    1103.6627     76.89738    88.794136     81.13265    1402.5732  0.029453663  0.028678893  0.034920026  0.093052583  0.022497397  0.023829146   0.02815967  0.074486213 
  943000   -1795511.6    10566.646    436.88369     76.89738    88.794136     81.13265    1402.8063  0.028901899   0.02983603  0.035009924  0.093747854  0.022482047  0.024656056  0.027359438  0.074497541 
  944000   -1795490.6    10619.672    510.34204     76.89738    88.794136     81.13265    1409.8459  0.029413619  0.029888215  0.034942486  0.094244319  0.022770735  0.024921313   0.02747176  0.075163808 
  945000   -1795494.4    10571.327     864.8981     76.89738    88.794136     81.13265    1403.4276  0.029393432  0.029535618  0.034199638  0.093128688  0.022783714  0.023714015  0.027529878  0.074027606 
  946000   -1795483.4    10529.967    637.13109     76.89738    88.794136     81.13265    1397.9368  0.029916575  0.029678673  0.034468989  0.094064237  0.023574112  0.024229566  0.027154388  0.074958066 
  947000   -1795564.7    10588.404    548.38333     76.89738    88.794136     81.13265    1405.6948  0.029224378  0.029799319  0.034653221  0.093676918  0.022711348  0.024124889  0.027265744  0.074101981 
  948000   -1795500.4     10542.72    433.32913     76.89738    88.794136     81.13265    1399.6299  0.029301593  0.030157548  0.033607664  0.093066806  0.022763303  0.024206161  0.027274554  0.074244018 
  949000   -1795496.7    10539.799     862.5727     76.89738    88.794136     81.13265    1399.2421     0.028957    0.0297672  0.034974199  0.093698398  0.022080722  0.024156708  0.027611969  0.073849399 
  950000   -1795479.9    10472.119    874.65185     76.89738    88.794136     81.13265     1390.257  0.029112183  0.029739097  0.035098724  0.093950003  0.022302465  0.023997487   0.02767989  0.073979842 
  951000   -1795568.3    10530.998    617.96194     76.89738    88.794136     81.13265    1398.0737  0.029000667  0.029371638  0.034022824   0.09239513  0.022531604  0.024731916  0.026902873  0.074166393 
  952000   -1795564.8    10577.789    534.39877     76.89738    88.794136     81.13265    1404.2856  0.029383282  0.029473286  0.036136132    0.0949927  0.023066512  0.024432397    0.0284692  0.075968109 
  953000   -1795535.5     10554.03    36.519271     76.89738    88.794136     81.13265    1401.1313  0.029631028   0.02908802  0.033772046  0.092491093  0.023330002   0.02395602  0.026942718   0.07422874 
  954000   -1795548.6     10566.84    16.174647     76.89738    88.794136     81.13265     1402.832  0.029518536  0.028663425  0.034239862  0.092421824     0.022995  0.023977252  0.027444555  0.074416807 
  955000   -1795484.7      10531.9    770.72999     76.89738    88.794136     81.13265    1398.1935   0.02917543  0.028709889  0.034744272  0.092629591  0.022475687  0.024103248  0.027872921  0.074451856 
  956000   -1795521.7    10552.782    628.67565     76.89738    88.794136     81.13265    1400.9657  0.029465739   0.02953838  0.034518476  0.093522595  0.022526849  0.024096194  0.027077323  0.073700366 
  957000   -1795545.8     10498.58    504.85572     76.89738    88.794136     81.13265    1393.7699  0.029491937  0.029822055  0.034307482  0.093621475    0.0230964  0.024175937  0.027432023   0.07470436 
  958000   -1795541.9    10567.157    1048.6873     76.89738    88.794136     81.13265    1402.8741  0.028758311   0.02920921  0.035326798  0.093294319  0.022338306  0.023633459  0.027847001  0.073818766 
  959000     -1795471    10596.678    701.54834     76.89738    88.794136     81.13265    1406.7933  0.029696837  0.029562834  0.034106495  0.093366166  0.022807902  0.024091156  0.027302857  0.074201915 
  960000   -1795506.4    10573.701     177.5029     76.89738    88.794136     81.13265    1403.7429  0.029507056  0.029451971  0.034297841  0.093256868  0.022816059  0.024272483  0.027052687  0.074141229 
  961000   -1795483.7    10558.311    601.65948     76.89738    88.794136     81.13265    1401.6998  0.029564214  0.029008988  0.035614827  0.094188029  0.022448634  0.023451589  0.028491811  0.074392033 
  962000   -1795475.5    10553.839    770.36038     76.89738    88.794136     81.13265     1401.106  0.029810578  0.029675251  0.035083157  0.094568986  0.022826398   0.02412596  0.027511439  0.074463797 
  963000   -1795540.6    10545.277    278.69552     76.89738    88.794136     81.13265    1399.9693    0.0297817  0.029733268  0.034078251  0.093593219  0.022750622  0.024270433  0.027125945  0.074146999 
  964000   -1795521.8    10536.257    332.56669     76.89738    88.794136     81.13265    1398.7719  0.029651002  0.029955436  0.036258636  0.095865074  0.023357459  0.024087158  0.029106804  0.076551421 
  965000   -1795530.7    10561.168    236.64517     76.89738    88.794136     81.13265     1402.079   0.02974539  0.030034843  0.034450794  0.094231028  0.022934549  0.024450484  0.027499851  0.074884884 
  966000   -1795516.7    10503.888    316.96907     76.89738    88.794136     81.13265    1394.4746  0.029411133  0.030485062   0.03411777  0.094013964  0.022340044  0.025053567   0.02729813  0.074691741 
  967000   -1795505.7    10515.448    457.06534     76.89738    88.794136     81.13265    1396.0092  0.029602118   0.03039226  0.034776756  0.094771134  0.022431538  0.024445954  0.028119992  0.074997485 
  968000   -1795527.4    10556.279    283.30769     76.89738    88.794136     81.13265    1401.4299  0.029639502  0.030127709  0.033968571  0.093735782  0.022881843  0.024306159  0.026871077   0.07405908 
  969000   -1795488.5    10592.594    767.46754     76.89738    88.794136     81.13265    1406.2511  0.029393809  0.029740489  0.035794806  0.094929103  0.022711611  0.024660867  0.028917254  0.076289732 
  970000   -1795472.8    10501.185    790.74507     76.89738    88.794136     81.13265    1394.1157  0.029772514  0.030735998  0.034922257   0.09543077  0.023213457  0.024709118  0.028032175   0.07595475 
  971000     -1795482    10555.919    1242.8326     76.89738    88.794136     81.13265    1401.3822  0.029026633  0.030399166  0.035394678  0.094820477  0.023533353  0.024326128  0.028805154  0.076664636 
  972000   -1795549.1    10571.959    658.36204     76.89738    88.794136     81.13265    1403.5117  0.028718383  0.029525677  0.034256847  0.092500907  0.022455943  0.024469422  0.027309645  0.074235009 
  973000   -1795504.2    10477.837    594.16475     76.89738    88.794136     81.13265    1391.0161  0.028989554  0.029892484  0.034360009  0.093242047    0.0225406  0.024672644  0.027158865  0.074372109 
  974000   -1795550.2    10488.137    174.82228     76.89738    88.794136     81.13265    1392.3835  0.029160561  0.029599259  0.035051824  0.093811644   0.02290076  0.024623244  0.028595164  0.076119168 
  975000   -1795524.7    10552.097    433.60787     76.89738    88.794136     81.13265    1400.8747  0.029400859  0.029768807  0.034172097  0.093341763  0.023086565  0.024739438  0.026851663  0.074677666 
  976000   -1795587.8    10589.445    343.76897     76.89738    88.794136     81.13265     1405.833   0.02913392  0.029618756   0.03474366  0.093496336  0.022729092  0.024391015  0.027978547  0.075098654 
  977000   -1795544.5     10577.17    816.55021     76.89738    88.794136     81.13265    1404.2034  0.029410119  0.030429279  0.034632756  0.094472154  0.022828564  0.025044091  0.027457889  0.075330545 
  978000   -1795477.4    10523.553    894.81514     76.89738    88.794136     81.13265    1397.0853  0.029160243  0.030290626  0.034797559  0.094248429  0.022654261  0.025149445  0.028007819  0.075811525 
  979000   -1795596.2    10544.704     447.0601     76.89738    88.794136     81.13265    1399.8932  0.029635016   0.02872274  0.034436456  0.092794212  0.023088936  0.023946318  0.027574274  0.074609528 
  980000   -1795524.2    10585.355    786.63891     76.89738    88.794136     81.13265      1405.29  0.029750159  0.028924461  0.033279405  0.091954025  0.023596189  0.024117715  0.026649775  0.074363679 
  981000   -1795552.6    10566.292    24.516476     76.89738    88.794136     81.13265    1402.7592  0.028703043  0.029042024  0.035102089  0.092847156  0.022344962  0.024143742  0.027971642  0.074460346 
  982000   -1795534.1    10557.444    250.27381     76.89738    88.794136     81.13265    1401.5846  0.029156973  0.029457651  0.033943769  0.092558393  0.022598559  0.024555427   0.02722456  0.074378546 
  983000   -1795488.9    10551.643    661.97988     76.89738    88.794136     81.13265    1400.8145   0.03041704  0.029070733  0.034631837   0.09411961  0.023790929  0.024589757  0.027364795  0.075745481 
  984000   -1795512.9    10515.873    631.16136     76.89738    88.794136     81.13265    1396.0657   0.03003944  0.028624169  0.034146721   0.09281033   0.02283287  0.024309056  0.027210215  0.074352142 
  985000   -1795479.1    10484.345    317.88805     76.89738    88.794136     81.13265    1391.8801  0.029573737  0.029138533   0.03506594   0.09377821  0.022539115  0.024085258  0.028032434  0.074656806 
  986000   -1795520.7    10558.607    575.50151     76.89738    88.794136     81.13265     1401.739  0.029521798   0.02835337  0.033704568  0.091579737  0.022669258  0.024193575  0.027132075  0.073994907 
  987000   -1795468.7    10525.096    497.55582     76.89738    88.794136     81.13265    1397.2901   0.02968227  0.029182959  0.034326334  0.093191563  0.022554852  0.024559569  0.027154823  0.074269243 
  988000   -1795501.4    10566.384    763.63726     76.89738    88.794136     81.13265    1402.7715  0.029861438  0.029109051  0.035230446  0.094200935  0.023196019  0.024436627  0.028299516  0.075932162 
  989000   -1795485.8    10545.126    516.61561     76.89738    88.794136     81.13265    1399.9493   0.03013333  0.029602891  0.034367672  0.094103893  0.023186561  0.025015521  0.026779094  0.074981175 
  990000     -1795491    10560.952    650.58555     76.89738    88.794136     81.13265    1402.0504  0.028935445  0.029164389  0.034217638  0.092317472  0.022699508  0.024582549  0.027234053   0.07451611 
  991000   -1795512.4    10522.499    898.89176     76.89738    88.794136     81.13265    1396.9454  0.028965041  0.028872144   0.03477459  0.092611776  0.022444751  0.024067393  0.028009041  0.074521185 
  992000   -1795542.2      10560.3     641.2206     76.89738    88.794136     81.13265    1401.9638  0.029677429  0.029610777   0.03432402  0.093612226  0.022781422   0.02479104  0.027421302  0.074993763 
  993000   -1795553.9      10547.2    736.53779     76.89738    88.794136     81.13265    1400.2246  0.028482844  0.029308496  0.034075344  0.091866684  0.022260191  0.024008431  0.027350257  0.073618879 
  994000   -1795550.3    10494.883     274.4677     76.89738    88.794136     81.13265    1393.2792  0.029271513    0.0291874  0.034742944  0.093201857  0.022673132  0.024127144  0.028049224    0.0748495 
  995000   -1795464.6    10563.788    427.23125     76.89738    88.794136     81.13265    1402.4268  0.028666376  0.029706738  0.034516003  0.092889118  0.023047726  0.025126865  0.027608919  0.075783509 
  996000   -1795483.2    10533.063    881.41345     76.89738    88.794136     81.13265    1398.3478  0.029138254  0.028413175  0.034194695  0.091746124  0.022724624  0.024267195  0.026901472  0.073893291 
  997000   -1795493.3    10493.989    713.70595     76.89738    88.794136     81.13265    1393.1605  0.029170417  0.028907352  0.034721837  0.092799605  0.022904724  0.024074829  0.028041357   0.07502091 
  998000   -1795495.5     10545.77    508.80231     76.89738    88.794136     81.13265    1400.0348  0.029020701  0.028929582  0.034341017    0.0922913  0.022526958  0.024007276  0.027436547  0.073970781 
  999000   -1795550.6    10491.728    -33.16195     76.89738    88.794136     81.13265    1392.8603  0.028682969  0.029323717  0.034280813  0.092287499  0.022006927  0.023805027  0.027411006   0.07322296 
 1000000   -1795531.3    10511.862    361.18227     76.89738    88.794136     81.13265    1395.5332  0.028150045   0.02914674  0.034780144   0.09207693  0.022316787  0.024282918  0.027785019  0.074384724 
Loop time of 221298 on 7 procs for 1000000 steps with 58275 atoms

Pair  time (%) = 178268 (80.5556)
Kspce time (%) = 39099.8 (17.6684)
Neigh time (%) = 2133.28 (0.963986)
Comm  time (%) = 1281.53 (0.579094)
Outpt time (%) = 0.417577 (0.000188694)
Other time (%) = 515.173 (0.232796)

Nlocal:    8325 ave 8450 max 8157 min
Histogram: 1 2 0 0 0 0 0 1 0 3
Nghost:    32482.4 ave 32892 max 32172 min
Histogram: 3 0 1 0 0 0 0 1 1 1
Neighs:    3.21526e+06 ave 3.26178e+06 max 3.15185e+06 min
Histogram: 1 2 0 0 0 0 0 0 1 3

Total # of neighbors = 22506849
Ave neighs/atom = 386.218
Neighbor list builds = 16854
Dangerous builds = 0
