LAMMPS (28 Jun 2014)
Running on 21 partitions of processors
Step MaxReplicaForce MaxAtomForce GradV0 GradV1 GradVc EBF EBR RDT RD1 PE1 RD2 PE2 ... RDN PEN
0    79.155306    13.615583    79.155306    79.144242    77.985723     13.26563    13.263214     4.126593            0   -14778.347         0.05   -14778.478          0.1   -14777.884         0.15   -14776.665          0.2   -14774.946         0.25   -14772.885          0.3   -14770.673         0.35   -14768.537          0.4   -14766.732         0.45   -14765.514          0.5   -14765.081         0.55    -14765.51          0.6   -14766.726         0.65   -14768.529          0.7   -14770.664         0.75   -14772.875          0.8   -14774.936         0.85   -14776.656          0.9   -14777.877         0.95   -14778.472            1   -14778.344 
100   0.53801763  0.080641111   0.42189522   0.42003485   0.44740991    5.5746987    5.5747118    5.4636575            0   -14850.764  0.040769447   -14850.725  0.083053742    -14850.49   0.12746522   -14850.007   0.17447536   -14849.294   0.22402405   -14848.425   0.27579465   -14847.498   0.32970138   -14846.609   0.38542416   -14845.862   0.44234276   -14845.364   0.49983251   -14845.189   0.55732547   -14845.362   0.61425471   -14845.858   0.66999585   -14846.605    0.7239274   -14847.493   0.77572912    -14848.42   0.82531588   -14849.291   0.87237287   -14850.005   0.91683646   -14850.489   0.95917529   -14850.725            1   -14850.764 
200   0.15442185    0.0185492  0.088386841  0.087967158   0.13935968    5.5465916    5.5465768    5.5479972            0   -14850.772   0.04826219   -14850.718  0.096637949   -14850.409   0.14526378   -14849.821   0.19433324   -14849.027   0.24398001   -14848.136   0.29424478   -14847.246   0.34507872   -14846.438   0.39638654    -14845.79   0.44803893    -14845.37   0.49987335   -14845.225   0.55171059   -14845.368   0.60337154   -14845.787   0.65469328   -14846.435    0.7055468   -14847.243   0.75583587   -14848.132   0.80551214   -14849.024   0.85461564   -14849.819   0.90327921   -14850.408   0.95169559   -14850.717            1   -14850.771 
300  0.062903232 0.0090067546 0.0058299959 0.0058284415  0.049635074    5.5368737    5.5368673    5.6951371            0   -14850.774  0.050862781    -14850.73   0.10154715   -14850.436   0.15195538   -14849.833    0.2021265   -14849.011   0.25211178     -14848.1   0.30188937   -14847.207   0.35151086   -14846.408   0.40103531   -14845.778    0.4504981   -14845.374   0.49992435   -14845.237   0.54935237   -14845.374   0.59882041   -14845.776   0.64835398   -14846.406   0.69798917   -14847.204   0.74778351   -14848.098   0.79778457   -14849.009   0.84797728   -14849.832   0.89840669   -14850.436   0.94911343    -14850.73            1   -14850.774 
400   0.10198217 0.0080332225 0.0010401117 0.0010395642  0.022848963    5.5331381    5.5331434    5.7864002            0   -14850.774  0.050682828    -14850.74   0.10123583   -14850.484   0.15159144   -14849.909   0.20176951   -14849.096   0.25175752   -14848.177   0.30159139   -14847.268   0.35129834    -14846.45   0.40090903   -14845.799   0.45045131   -14845.383    0.4999571   -14845.241   0.54946446   -14845.383   0.59901075   -14845.798   0.64862671   -14846.449   0.69833975   -14847.267    0.7481825   -14848.175   0.79818129   -14849.095   0.84837066   -14849.908   0.89873821   -14850.484   0.94930471    -14850.74            1   -14850.774 
500  0.027756531 0.0038035664 0.00035194989 0.00035217679  0.013640008    5.5329714    5.5329465    5.8213857            0   -14850.774  0.050448486   -14850.743   0.10081376   -14850.505   0.15105421   -14849.943   0.20116922   -14849.136   0.25116425   -14848.215   0.30105658   -14847.299   0.35086399   -14846.471   0.40060476    -14845.81    0.4502998   -14845.386   0.49997219   -14845.241   0.54964511   -14845.386   0.59934195   -14845.809   0.64908612    -14846.47   0.69889826   -14847.298   0.74879621   -14848.214   0.79879754   -14849.136   0.84891999   -14849.942   0.89916879   -14850.505   0.94954281   -14850.743            1   -14850.774 
600  0.024291439 0.0020726194 9.7943254e-05 9.8554002e-05 0.0075442733    5.5326626      5.53267    5.8457248            0   -14850.774  0.050250713   -14850.746   0.10045551   -14850.519   0.15059147   -14849.968   0.20065686   -14849.166    0.2506551   -14848.243   0.30059486   -14847.322   0.35048627   -14846.487   0.40033998   -14845.819   0.45016776   -14845.389   0.49998251   -14845.241    0.5497977   -14845.388   0.59962678   -14845.818   0.64948259   -14846.486   0.69937687   -14847.322   0.74932016   -14848.243   0.79932246   -14849.166   0.84939257   -14849.967   0.89953363   -14850.519   0.94974386   -14850.746            1   -14850.774 
700   0.01415466 0.0012035154 0.0001684893 0.00015642098 0.0041661869    5.5321498    5.5321579    5.8594196            0   -14850.774   0.05013935   -14850.747   0.10025316   -14850.527   0.15032921   -14849.981    0.2003657   -14849.183    0.2503649   -14848.259   0.30033136   -14847.336   0.35027071   -14846.496   0.40018882   -14845.823    0.4500925    -14845.39   0.49998901   -14845.242    0.5498858    -14845.39   0.59979026   -14845.823   0.64970967   -14846.496   0.69965081   -14847.335   0.74961948   -14848.259   0.79962124   -14849.183   0.84966067   -14849.981   0.89973998   -14850.527   0.94985717   -14850.747            1   -14850.774 
800  0.017520076 0.0014327838 0.00042864151 0.00043409222 0.0019303634    5.5321979    5.5321576    5.8685862            0   -14850.774  0.050064017   -14850.747   0.10011572   -14850.532   0.15015045   -14849.991   0.20016719   -14849.194   0.25016675    -14848.27   0.30015121   -14847.344   0.35012331   -14846.502   0.40008564   -14845.826   0.45004143   -14845.391   0.49999399   -14845.242   0.54994668   -14845.391   0.59990288   -14845.826   0.64986593   -14846.502   0.69983903   -14847.344   0.74982466    -14848.27   0.79982571   -14849.194   0.84984394   -14849.991   0.89988065   -14850.532   0.94993407   -14850.747            1   -14850.774 
900 0.0040972716 0.00039212616 3.0145439e-05 0.00010930682  0.001308398    5.5320984    5.5321153    5.8709586            0   -14850.774  0.050043898   -14850.747   0.10007985   -14850.533   0.15010363   -14849.993   0.20011518   -14849.197   0.25011481   -14848.273   0.30010412   -14847.347    0.3500848   -14846.503   0.40005882   -14845.827   0.45002828   -14845.391   0.49999549   -14845.242   0.54996281   -14845.391    0.5999326   -14845.827   0.64990715   -14846.503   0.69988856   -14847.346   0.74987879   -14848.273   0.79987945   -14849.197   0.84989233   -14849.993    0.8999173   -14850.533   0.94995468   -14850.747            1   -14850.774 
969 0.00096402462 0.00023375907 5.1374003e-05 3.2461127e-05 0.00084118303    5.5321507    5.5321601    5.8728891            0   -14850.774  0.050027655   -14850.748    0.1000502   -14850.534   0.15006522   -14849.995   0.20007239   -14849.199   0.25007218   -14848.275   0.30006539   -14847.348    0.3500532   -14846.505    0.4000368   -14845.828   0.45001752   -14845.392   0.49999681   -14845.242   0.54997618   -14845.391   0.59995713   -14845.828    0.6499411   -14846.505   0.69992941   -14847.348   0.74992325   -14848.275   0.79992382   -14849.199   0.84993183   -14849.995   0.89994783   -14850.534   0.94997131   -14850.748            1   -14850.774 
Climbing replica = 11
Step MaxReplicaForce MaxAtomForce GradV0 GradV1 GradVc EBF EBR RDT RD1 PE1 RD2 PE2 ... RDN PEN
969 0.00096402462 0.00023375907 5.1374003e-05 3.2461127e-05 0.00084118303    5.5321507    5.5321601    5.8728891            0   -14850.774  0.050027655   -14850.748    0.1000502   -14850.534   0.15006522   -14849.995   0.20007239   -14849.199   0.25007218   -14848.275   0.30006539   -14847.348    0.3500532   -14846.505    0.4000368   -14845.828   0.45001752   -14845.392   0.49999681   -14845.242   0.54997618   -14845.391   0.59995713   -14845.828    0.6499411   -14846.505   0.69992941   -14847.348   0.74992325   -14848.275   0.79992382   -14849.199   0.84993183   -14849.995   0.89994783   -14850.534   0.94997131   -14850.748            1   -14850.774 
970 0.00096402462 0.00023375907 5.1374003e-05 3.2461127e-05 0.00084118303    5.5321507    5.5321601    5.8728891            0   -14850.774  0.050027655   -14850.748    0.1000502   -14850.534   0.15006522   -14849.995   0.20007239   -14849.199   0.25007218   -14848.275   0.30006539   -14847.348    0.3500532   -14846.505    0.4000368   -14845.828   0.45001752   -14845.392   0.49999681   -14845.242   0.54997618   -14845.391   0.59995713   -14845.828    0.6499411   -14846.505   0.69992941   -14847.348   0.74992325   -14848.275   0.79992382   -14849.199   0.84993183   -14849.995   0.89994783   -14850.534   0.94997131   -14850.748            1   -14850.774 
