479
Atoms. Timestep: 0
1 1.314 19.0766 3.398
1 5.609 16.5976 3.398
1 9.903 14.1176 3.398
1 14.198 11.6386 3.398
1 1.314 4.2 3.398
1 5.609 1.721 3.398
1 9.903 19.0766 3.398
1 14.198 16.5976 3.398
1 1.314 9.159 3.398
1 5.609 6.68 3.398
1 9.903 4.2 3.398
1 14.198 1.721 3.398
1 1.314 14.118 3.398
1 5.609 11.639 3.398
1 9.903 9.159 3.398
1 14.198 6.68 3.398
1 0 1.517 3.398
1 4.295 18.8736 3.398
1 8.589 16.3946 3.398
1 12.884 13.9146 3.398
1 0 6.476 3.398
1 4.295 3.997 3.398
1 8.589 1.517 3.398
1 12.884 18.8736 3.398
1 0 11.435 3.398
1 4.295 8.956 3.398
1 8.589 6.476 3.398
1 12.884 3.997 3.398
1 0 16.394 3.398
1 4.295 13.915 3.398
1 8.589 11.435 3.398
1 12.884 8.956 3.398
1 2.98 1.721 3.398
1 7.275 19.0766 3.398
1 11.569 16.5976 3.398
1 15.864 14.1176 3.398
1 2.98 6.68 3.398
1 7.275 4.2 3.398
1 11.569 1.721 3.398
1 15.864 19.0766 3.398
1 2.98 11.639 3.398
1 7.275 9.159 3.398
1 11.569 6.68 3.398
1 15.864 4.2 3.398
1 2.98 16.597 3.398
1 7.275 14.118 3.398
1 11.569 11.639 3.398
1 15.864 9.159 3.398
1 2.98 18.1146 10.195
1 7.275 15.6356 10.195
1 11.569 13.1556 10.195
1 15.864 10.6766 10.195
1 2.98 3.238 10.195
1 7.275 0.759 10.195
1 11.569 18.1146 10.195
1 15.864 15.6356 10.195
1 2.98 8.197 10.195
1 7.275 5.718 10.195
1 11.569 3.238 10.195
1 15.864 0.759 10.195
1 2.98 13.156 10.195
1 7.275 10.677 10.195
1 11.569 8.197 10.195
1 15.864 5.718 10.195
1 0 3.441 10.195
1 4.295 0.962 10.195
1 8.589 18.3186 10.195
1 12.884 15.8386 10.195
1 0 8.4 10.195
1 1.86145 4.2856 12.1203
1 8.589 3.441 10.195
1 12.884 0.962 10.195
1 0 13.359 10.195
1 4.295 10.88 10.195
1 8.589 8.4 10.195
1 12.884 5.921 10.195
1 0 18.318 10.195
1 4.295 15.839 10.195
1 8.589 13.359 10.195
1 12.884 10.88 10.195
1 1.314 0.759 10.195
1 5.609 18.1146 10.195
1 9.903 15.6356 10.195
1 14.198 13.1556 10.195
1 1.314 5.718 10.195
1 5.609 3.238 10.195
1 9.903 0.759 10.195
1 14.198 18.1146 10.195
1 1.314 10.677 10.195
1 5.609 8.197 10.195
1 9.903 5.718 10.195
1 14.198 3.238 10.195
1 1.314 15.635 10.195
1 5.609 13.156 10.195
1 9.903 10.677 10.195
1 14.198 8.197 10.195
1 4.177 19.0766 7.929
1 8.472 16.5976 7.929
1 12.766 14.1176 7.929
1 17.061 11.6386 7.929
1 4.177 4.2 7.929
1 8.472 1.721 7.929
1 12.766 19.0766 7.929
1 17.061 16.5976 7.929
1 4.177 9.159 7.929
1 8.472 6.68 7.929
1 12.766 4.2 7.929
1 17.061 1.721 7.929
1 4.177 14.118 7.929
1 8.472 11.639 7.929
1 12.766 9.159 7.929
1 17.061 6.68 7.929
1 2.863 1.517 7.929
1 7.158 18.8736 7.929
1 11.452 16.3946 7.929
1 15.747 13.9146 7.929
1 2.863 6.476 7.929
1 7.158 3.997 7.929
1 11.452 1.517 7.929
1 15.747 18.8736 7.929
1 2.863 11.435 7.929
1 7.158 8.956 7.929
1 11.452 6.476 7.929
1 15.747 3.997 7.929
1 2.863 16.394 7.929
1 7.158 13.915 7.929
1 11.452 11.435 7.929
1 15.747 8.956 7.929
1 1.549 19.0766 7.929
1 5.843 16.5976 7.929
1 10.138 14.1176 7.929
1 14.432 11.6386 7.929
1 1.549 4.2 7.929
1 5.843 1.721 7.929
1 10.138 19.0766 7.929
1 14.432 16.5976 7.929
1 1.549 9.159 7.929
1 5.843 6.68 7.929
1 10.138 4.2 7.929
1 14.432 1.721 7.929
1 1.549 14.118 7.929
1 5.843 11.639 7.929
1 10.138 9.159 7.929
1 14.432 6.68 7.929
1 1.549 0.759 1.133
1 5.843 18.1146 1.133
1 10.138 15.6356 1.133
1 14.432 13.1556 1.133
1 1.549 5.718 1.133
1 5.843 3.238 1.133
1 10.138 0.759 1.133
1 14.432 18.1146 1.133
1 1.549 10.677 1.133
1 5.843 8.197 1.133
1 10.138 5.718 1.133
1 14.432 3.238 1.133
1 1.549 15.635 1.133
1 5.843 13.156 1.133
1 10.138 10.677 1.133
1 14.432 8.197 1.133
1 2.863 18.3186 1.133
1 7.158 15.8386 1.133
1 11.452 13.3596 1.133
1 15.747 10.8796 1.133
1 2.863 3.441 1.133
1 7.158 0.962 1.133
1 11.452 18.3186 1.133
1 15.747 15.8386 1.133
1 2.863 8.4 1.133
1 7.158 5.921 1.133
1 11.452 3.441 1.133
1 15.747 0.962 1.133
1 2.863 13.359 1.133
1 7.158 10.88 1.133
1 11.452 8.4 1.133
1 15.747 5.921 1.133
1 4.177 0.759 1.133
1 8.472 18.1146 1.133
1 12.766 15.6356 1.133
1 17.061 13.1556 1.133
1 4.177 5.718 1.133
1 8.472 3.238 1.133
1 12.766 0.759 1.133
1 17.061 18.1146 1.133
1 4.177 10.677 1.133
1 8.472 8.197 1.133
1 12.766 5.718 1.133
1 17.061 3.238 1.133
1 4.177 15.635 1.133
1 8.472 13.156 1.133
1 12.766 10.677 1.133
1 17.061 8.197 1.133
1 2.746 1.721 12.46
1 7.04 19.0766 12.46
1 11.335 16.5976 12.46
1 15.629 14.1176 12.46
1 2.746 6.68 12.46
1 7.04 4.2 12.46
1 11.335 1.721 12.46
1 15.629 19.0766 12.46
1 2.746 11.639 12.46
1 7.04 9.159 12.46
1 11.335 6.68 12.46
1 15.629 4.2 12.46
1 2.746 16.597 12.46
1 7.04 14.118 12.46
1 11.335 11.639 12.46
1 15.629 9.159 12.46
1 5.726 1.517 12.46
1 10.021 18.8736 12.46
1 14.315 16.3946 12.46
1 1.432 8.956 12.46
1 5.726 6.476 12.46
1 10.021 3.997 12.46
1 14.315 1.517 12.46
1 1.432 13.915 12.46
1 5.726 11.435 12.46
1 10.021 8.956 12.46
1 14.315 6.476 12.46
1 1.432 18.874 12.46
1 5.726 16.394 12.46
1 10.021 13.915 12.46
1 14.315 11.435 12.46
1 0.117 1.721 12.46
1 4.412 19.0766 12.46
1 8.706 16.5976 12.46
1 13.001 14.1176 12.46
1 0.117 6.68 12.46
1 4.412 4.2 12.46
1 8.706 1.721 12.46
1 13.001 19.0766 12.46
1 0.117 11.639 12.46
1 4.412 9.159 12.46
1 8.706 6.68 12.46
1 13.001 4.2 12.46
1 0.117 16.597 12.46
1 4.412 14.118 12.46
1 8.706 11.639 12.46
1 13.001 9.159 12.46
1 0.117 3.238 5.664
1 4.412 0.759 5.664
1 8.706 18.1146 5.664
1 13.001 15.6356 5.664
1 0.117 8.197 5.664
1 4.412 5.718 5.664
1 8.706 3.238 5.664
1 13.001 0.759 5.664
1 0.117 13.156 5.664
1 4.412 10.677 5.664
1 8.706 8.197 5.664
1 13.001 5.718 5.664
1 0.117 18.115 5.664
1 4.412 15.635 5.664
1 8.706 13.156 5.664
1 13.001 10.677 5.664
1 1.432 0.962 5.664
1 5.726 18.3186 5.664
1 10.021 15.8386 5.664
1 14.315 13.3596 5.664
1 1.432 5.921 5.664
1 5.726 3.441 5.664
1 10.021 0.962 5.664
1 14.315 18.3186 5.664
1 1.432 10.88 5.664
1 5.726 8.4 5.664
1 10.021 5.921 5.664
1 14.315 3.441 5.664
1 1.432 15.839 5.664
1 5.726 13.359 5.664
1 10.021 10.88 5.664
1 14.315 8.4 5.664
1 2.746 3.238 5.664
1 7.04 0.759 5.664
1 11.335 18.1146 5.664
1 15.629 15.6356 5.664
1 2.746 8.197 5.664
1 7.04 5.718 5.664
1 11.335 3.238 5.664
1 15.629 0.759 5.664
1 2.746 13.156 5.664
1 7.04 10.677 5.664
1 11.335 8.197 5.664
1 15.629 5.718 5.664
1 2.746 18.115 5.664
1 7.04 15.635 5.664
1 11.335 13.156 5.664
1 15.629 10.677 5.664
2 0 0 4.724
2 4.295 17.3566 4.724
2 8.589 14.8766 4.724
2 12.884 12.3976 4.724
2 0 4.959 4.724
2 4.295 2.479 4.724
2 8.589 0 4.724
2 12.884 17.3566 4.724
2 0 9.918 4.724
2 4.295 7.438 4.724
2 8.589 4.959 4.724
2 12.884 2.479 4.724
2 0 14.877 4.724
2 4.295 12.397 4.724
2 8.589 9.918 4.724
2 12.884 7.438 4.724
2 0 0 2.073
2 4.295 17.3566 2.073
2 8.589 14.8766 2.073
2 12.884 12.3976 2.073
2 0 4.959 2.073
2 4.295 2.479 2.073
2 8.589 0 2.073
2 12.884 17.3566 2.073
2 0 9.918 2.073
2 4.295 7.438 2.073
2 8.589 4.959 2.073
2 12.884 2.479 2.073
2 0 14.877 2.073
2 4.295 12.397 2.073
2 8.589 9.918 2.073
2 12.884 7.438 2.073
2 0 0 8.869
2 4.295 17.3566 8.869
2 8.589 14.8766 8.869
2 12.884 12.3976 8.869
2 0 4.959 8.869
2 4.295 2.479 8.869
2 8.589 0 8.869
2 12.884 17.3566 8.869
2 0 9.918 8.869
2 4.295 7.438 8.869
2 8.589 4.959 8.869
2 12.884 2.479 8.869
2 0 14.877 8.869
2 4.295 12.397 8.869
2 8.589 9.918 8.869
2 12.884 7.438 8.869
2 0 0 11.52
2 4.295 17.3566 11.52
2 8.589 14.8766 11.52
2 12.884 12.3976 11.52
2 0 4.959 11.52
2 4.295 2.479 11.52
2 8.589 0 11.52
2 12.884 17.3566 11.52
2 0 9.918 11.52
2 4.295 7.438 11.52
2 8.589 4.959 11.52
2 12.884 2.479 11.52
2 0 14.877 11.52
2 4.295 12.397 11.52
2 8.589 9.918 11.52
2 12.884 7.438 11.52
2 2.863 0 9.255
2 7.158 17.3566 9.255
2 11.452 14.8766 9.255
2 15.747 12.3976 9.255
2 2.863 4.959 9.255
2 7.158 2.479 9.255
2 11.452 0 9.255
2 15.747 17.3566 9.255
2 2.863 9.918 9.255
2 7.158 7.438 9.255
2 11.452 4.959 9.255
2 15.747 2.479 9.255
2 2.863 14.877 9.255
2 7.158 12.397 9.255
2 11.452 9.918 9.255
2 15.747 7.438 9.255
2 2.863 0 6.604
2 7.158 17.3566 6.604
2 11.452 14.8766 6.604
2 15.747 12.3976 6.604
2 2.863 4.959 6.604
2 7.158 2.479 6.604
2 11.452 0 6.604
2 15.747 17.3566 6.604
2 2.863 9.918 6.604
2 7.158 7.438 6.604
2 11.452 4.959 6.604
2 15.747 2.479 6.604
2 2.863 14.877 6.604
2 7.158 12.397 6.604
2 11.452 9.918 6.604
2 15.747 7.438 6.604
2 2.863 0 13.401
2 7.158 17.3566 13.401
2 11.452 14.8766 13.401
2 15.747 12.3976 13.401
2 2.863 4.959 13.401
2 7.158 2.479 13.401
2 11.452 0 13.401
2 15.747 17.3566 13.401
2 2.863 9.918 13.401
2 7.158 7.438 13.401
2 11.452 4.959 13.401
2 15.747 2.479 13.401
2 2.863 14.877 13.401
2 7.158 12.397 13.401
2 11.452 9.918 13.401
2 15.747 7.438 13.401
2 2.863 0 2.458
2 7.158 17.3566 2.458
2 11.452 14.8766 2.458
2 15.747 12.3976 2.458
2 2.863 4.959 2.458
2 7.158 2.479 2.458
2 11.452 0 2.458
2 15.747 17.3566 2.458
2 2.863 9.918 2.458
2 7.158 7.438 2.458
2 11.452 4.959 2.458
2 15.747 2.479 2.458
2 2.863 14.877 2.458
2 7.158 12.397 2.458
2 11.452 9.918 2.458
2 15.747 7.438 2.458
2 1.432 2.479 0.193
2 5.726 0 0.193
2 10.021 17.3566 0.193
2 14.315 14.8766 0.193
2 1.432 7.438 0.193
2 5.726 4.959 0.193
2 10.021 2.479 0.193
2 14.315 0 0.193
2 1.432 12.397 0.193
2 5.726 9.918 0.193
2 10.021 7.438 0.193
2 14.315 4.959 0.193
2 1.432 17.356 0.193
2 5.726 14.877 0.193
2 10.021 12.397 0.193
2 14.315 9.918 0.193
2 1.432 2.479 11.135
2 5.726 0 11.135
2 10.021 17.3566 11.135
2 14.315 14.8766 11.135
2 1.432 7.438 11.135
2 5.726 4.959 11.135
2 10.021 2.479 11.135
2 14.315 0 11.135
2 1.432 12.397 11.135
2 5.726 9.918 11.135
2 10.021 7.438 11.135
2 14.315 4.959 11.135
2 1.432 17.356 11.135
2 5.726 14.877 11.135
2 10.021 12.397 11.135
2 14.315 9.918 11.135
2 1.432 2.479 4.338
2 5.726 0 4.338
2 10.021 17.3566 4.338
2 14.315 14.8766 4.338
2 1.432 7.438 4.338
2 5.726 4.959 4.338
2 10.021 2.479 4.338
2 14.315 0 4.338
2 1.432 12.397 4.338
2 5.726 9.918 4.338
2 10.021 7.438 4.338
2 14.315 4.959 4.338
2 1.432 17.356 4.338
2 5.726 14.877 4.338
2 10.021 12.397 4.338
2 14.315 9.918 4.338
2 1.432 2.479 6.989
2 5.726 0 6.989
2 10.021 17.3566 6.989
2 14.315 14.8766 6.989
2 1.432 7.438 6.989
2 5.726 4.959 6.989
2 10.021 2.479 6.989
2 14.315 0 6.989
2 1.432 12.397 6.989
2 5.726 9.918 6.989
2 10.021 7.438 6.989
2 14.315 4.959 6.989
2 1.432 17.356 6.989
2 5.726 14.877 6.989
2 10.021 12.397 6.989
2 14.315 9.918 64474479
Atoms. Timestep: 969
1 1.29392 19.0762 3.43178
1 5.59505 16.6095 3.39686
1 9.88585 14.1285 3.39388
1 14.1738 11.6406 3.38713
1 1.30624 4.20184 3.35733
1 5.58847 1.71166 3.44302
1 9.89621 19.0939 3.40473
1 14.1814 16.6098 3.41233
1 1.29639 9.17529 3.38059
1 5.58804 6.68586 3.41438
1 9.89942 4.20838 3.4013
1 14.2021 1.72952 3.388
1 1.29127 14.1288 3.39971
1 5.59388 11.6554 3.38277
1 9.87365 9.15808 3.39276
1 14.1942 6.67896 3.36798
1 0.0249058 1.51943 3.36108
1 4.29685 18.8532 3.41898
1 8.59396 16.3795 3.40291
1 12.8781 13.891 3.39973
1 0.0299487 6.45376 3.33788
1 4.31216 3.97805 3.4006
1 8.59723 1.50261 3.437
1 12.8915 18.8627 3.40807
1 -0.00764302 11.4151 3.38771
1 4.30039 8.9298 3.39927
1 8.59627 6.45176 3.41161
1 12.9097 3.97614 3.38688
1 -0.00573924 16.3725 3.41182
1 4.29403 13.8975 3.39385
1 8.57993 11.4068 3.3894
1 12.8784 8.92433 3.37696
1 2.99664 1.72051 3.41289
1 7.30134 19.0896 3.41917
1 11.5904 16.6144 3.39948
1 15.8744 14.1282 3.40122
1 2.99086 6.67943 3.34888
1 7.29811 4.21173 3.45631
1 11.6061 1.73758 3.41948
1 15.8916 19.0988 3.40403
1 2.99282 11.6539 3.39321
1 7.27428 9.15788 3.39566
1 11.5962 6.67517 3.40062
1 15.9076 4.20057 3.3594
1 2.99912 16.6053 3.40272
1 7.29424 14.1321 3.38668
1 11.5779 11.6412 3.39091
1 15.8813 9.16223 3.36662
1 3.00671 18.0709 10.2051
1 7.2995 15.6248 10.1918
1 11.5801 13.1433 10.1932
1 15.8735 10.6668 10.1844
1 2.85518 3.07771 10.1875
1 7.29496 0.750487 10.2221
1 11.5972 18.1075 10.2016
1 15.878 15.6144 10.2075
1 3.01574 8.11121 10.1392
1 7.20791 5.68375 10.2371
1 11.5904 3.23391 10.1967
1 15.9159 0.759747 10.2347
1 2.99803 13.1408 10.1901
1 7.26896 10.6557 10.1682
1 11.5544 8.19965 10.1836
1 15.7509 5.70937 10.1179
1 0.0326143 3.46347 10.3219
1 4.29137 0.953914 10.2448
1 8.60015 18.3424 10.205
1 12.8889 15.8607 10.1966
1 -0.0228212 8.41024 10.1442
1 3.67739 5.45578 10.9419
1 8.58261 3.46055 10.2282
1 12.8982 0.988852 10.2051
1 -0.00248082 13.3765 10.1869
1 4.28521 10.8783 10.1675
1 8.54398 8.4041 10.1979
1 12.8082 5.94753 10.1693
1 -0.0185619 18.3045 10.2279
1 4.30405 15.8448 10.1872
1 8.5882 13.3752 10.1838
1 12.8699 10.8997 10.1824
1 1.30318 0.629378 10.1786
1 5.60123 18.0909 10.2077
1 9.89126 15.6248 10.1962
1 14.1733 13.1418 10.1956
1 1.11015 5.69958 10.1599
1 5.56095 3.21725 10.2949
1 9.89855 0.749532 10.2021
1 14.1916 18.1106 10.2057
1 1.291 10.6657 10.1799
1 5.48706 8.09096 10.2162
1 9.83705 5.70794 10.2064
1 14.1836 3.23803 10.1762
1 1.29852 15.6163 10.201
1 5.58766 13.1392 10.1808
1 9.86236 10.6558 10.1939
1 14.1414 8.19813 10.1732
1 4.16661 19.0687 7.96078
1 8.46155 16.6124 7.93179
1 12.7459 14.1256 7.93117
1 17.035 11.644 7.91563
1 4.12133 4.23275 8.06176
1 8.44346 1.73412 7.95014
1 12.7574 19.0945 7.94005
1 17.0417 16.6018 7.94224
1 4.13716 9.21409 7.88036
1 8.38619 6.67459 7.94016
1 12.7332 4.21247 7.92053
1 17.072 1.74904 7.99346
1 4.16316 14.1284 7.91755
1 8.44182 11.6368 7.9153
1 12.7205 9.16082 7.90166
1 17.0009 6.70338 7.83784
1 2.86511 1.47011 7.93102
1 7.16032 18.8573 7.95167
1 11.4544 16.3768 7.93521
1 15.7409 13.8906 7.93425
1 2.83491 6.48149 7.93706
1 7.12504 3.96762 7.97256
1 11.4572 1.5062 7.93677
1 15.7548 18.8627 7.94149
1 2.84802 11.4295 7.92035
1 7.09985 8.90966 7.9382
1 11.4076 6.45084 7.916
1 15.7523 3.98612 7.89667
1 2.86853 16.3638 7.93168
1 7.16412 13.8934 7.92032
1 11.4368 11.4057 7.93056
1 15.7187 8.94177 7.9136
1 1.57282 19.0593 7.91976
1 5.87119 16.5998 7.92562
1 10.1533 14.1253 7.92197
1 14.4377 11.6457 7.91849
1 1.52826 4.2113 7.93734
1 5.83811 1.73037 7.98314
1 10.1642 19.0929 7.93757
1 14.4526 16.6102 7.93677
1 1.56508 9.17054 7.92429
1 5.73861 6.65074 8.03615
1 10.1302 4.20847 7.95817
1 14.4687 1.73599 7.93952
1 1.56351 14.1286 7.92973
1 5.85523 11.6585 7.90785
1 10.12 9.15202 7.92604
1 14.4129 6.69633 7.8947
1 1.59003 0.694566 1.1777
1 5.86601 18.1086 1.14551
1 10.1585 15.6274 1.13185
1 14.4421 13.1405 1.1311
1 1.60939 5.66398 0.993472
1 5.93613 3.19422 1.26761
1 10.1837 0.755833 1.1591
1 14.4612 18.114 1.14995
1 1.55388 10.6848 1.10539
1 5.8434 8.17876 1.09478
1 10.1771 5.70604 1.14274
1 14.512 3.23659 1.12628
1 1.5616 15.6238 1.14548
1 5.86214 13.1523 1.12032
1 10.1466 10.6597 1.12275
1 14.458 8.18089 1.10636
1 2.87695 18.3217 1.14135
1 7.16297 15.8631 1.12715
1 11.4498 13.3772 1.12699
1 15.7414 10.8951 1.11137
1 2.87859 3.41149 1.18166
1 7.18899 0.964948 1.14491
1 11.4672 18.3472 1.13202
1 15.7401 15.8597 1.14073
1 2.85394 8.46292 1.17349
1 7.17257 5.92459 1.18371
1 11.4924 3.46585 1.14116
1 15.8045 1.00576 1.12214
1 2.85862 13.3888 1.12887
1 7.14933 10.8928 1.11845
1 11.445 8.41244 1.12407
1 15.7758 5.94763 1.08578
1 4.15237 0.747191 1.12169
1 8.46653 18.1054 1.14427
1 12.7512 15.6277 1.14079
1 17.0328 13.1515 1.136
1 4.21861 5.71981 1.10162
1 8.49378 3.22799 1.16153
1 12.7841 0.763898 1.13686
1 17.049 18.094 1.15329
1 4.15714 10.6886 1.13268
1 8.43809 8.18417 1.12947
1 12.7755 5.70775 1.10457
1 17.1672 3.2656 1.00482
1 4.1621 15.6241 1.13112
1 8.45203 13.1438 1.12621
1 12.7397 10.6614 1.12576
1 17.0584 8.18155 1.08883
1 2.66008 1.90084 12.5118
1 7.02954 19.0752 12.4683
1 11.3239 16.6092 12.4628
1 15.6038 14.1303 12.4648
1 2.75301 6.90978 12.6056
1 7.10536 4.20926 12.5385
1 11.3457 1.71969 12.4734
1 15.6273 19.0881 12.4918
1 2.71828 11.6732 12.447
1 6.98966 9.15627 12.4231
1 11.3151 6.68787 12.4549
1 15.6547 4.22887 12.4319
1 2.72545 16.6123 12.4653
1 7.02464 14.1366 12.4484
1 11.3067 11.6456 12.4541
1 15.6037 9.16434 12.4337
1 5.74918 1.47014 12.5093
1 10.033 18.8529 12.4735
1 14.3138 16.3771 12.4726
1 1.39666 8.98111 12.4147
1 5.65845 6.44041 12.4248
1 10.0672 3.97183 12.475
1 14.3544 1.50751 12.4558
1 1.42319 13.9082 12.4666
1 5.73509 11.4373 12.4346
1 10.0051 8.92936 12.4507
1 14.323 6.4502 12.4101
1 1.44027 18.8811 12.4884
1 5.7268 16.3771 12.4675
1 10.0155 13.8925 12.4588
1 14.3048 11.4113 12.45
1 0.223942 1.80572 12.4138
1 4.41876 19.0919 12.4685
1 8.73186 16.6089 12.4598
1 13.0129 14.1278 12.4592
1 0.126517 6.64852 12.3547
1 4.61309 4.08092 12.6834
1 8.7542 1.71948 12.4789
1 13.038 19.0977 12.4605
1 0.119662 11.6681 12.4441
1 4.41522 9.24369 12.4478
1 8.70827 6.68376 12.4779
1 13.042 4.21309 12.432
1 0.13882 16.6159 12.4757
1 4.42755 14.1347 12.4534
1 8.71194 11.6432 12.4493
1 13.0049 9.17071 12.4543
1 0.138425 3.23161 5.65199
1 4.42326 0.73984 5.68987
1 8.73033 18.1134 5.67589
1 13.0187 15.6249 5.66941
1 0.13372 8.1966 5.62769
1 4.40797 5.71461 5.70771
1 8.71196 3.23799 5.69642
1 13.0333 0.759991 5.67276
1 0.130511 13.1433 5.66525
1 4.43141 10.6778 5.63261
1 8.70307 8.18565 5.67907
1 13.0095 5.70779 5.65839
1 0.131559 18.0978 5.67944
1 4.43396 15.6243 5.66308
1 8.72297 13.1434 5.65153
1 13.0086 10.6585 5.6573
1 1.42586 0.986127 5.67447
1 5.73192 18.338 5.67453
1 10.0262 15.863 5.66244
1 14.3104 13.3737 5.65927
1 1.41641 5.93969 5.66029
1 5.69633 3.4641 5.71989
1 10.0266 0.993091 5.68377
1 14.3246 18.3481 5.67202
1 1.42941 10.8989 5.6429
1 5.70314 8.40029 5.69716
1 9.99516 5.93982 5.67584
1 14.3138 3.46565 5.65613
1 1.43191 15.8563 5.66888
1 5.73176 13.3819 5.65012
1 10.0127 10.8907 5.6546
1 14.3083 8.414 5.62498
1 2.73252 3.23145 5.70189
1 7.02013 0.754867 5.69753
1 11.327 18.113 5.67181
1 15.6105 15.6216 5.67513
1 2.72787 8.18385 5.65679
1 6.99298 5.71535 5.70253
1 11.3112 3.24226 5.6618
1 15.6351 0.762262 5.67227
1 2.72674 13.1473 5.65791
1 7.01306 10.6556 5.65866
1 11.2996 8.1795 5.64198
1 15.6123 5.70652 5.61214
1 2.73362 18.0986 5.66534
1 7.02973 15.6257 5.66028
1 11.3144 13.1392 5.663
1 15.6031 10.6618 5.64444
2 0.0056423 -0.0169406 4.88796
2 4.30027 17.3477 4.87339
2 8.59737 14.8817 4.85955
2 12.8761 12.3915 4.86308
2 0.0106463 4.95936 4.81337
2 4.29357 2.4675 4.90381
2 8.59531 0.00603205 4.88846
2 12.8867 17.3554 4.87424
2 -0.00818965 9.93005 4.83465
2 4.29591 7.43747 4.86003
2 8.5683 4.95934 4.89557
2 12.8821 2.48412 4.86862
2 -0.00891873 14.8715 4.87499
2 4.29406 12.4152 4.84798
2 8.58619 9.91432 4.85613
2 12.8723 7.43544 4.84538
2 -0.00390542 -0.0375364 1.967
2 4.30916 17.3396 1.93835
2 8.59222 14.879 1.926
2 12.8737 12.3934 1.92883
2 0.0342832 4.96868 1.86201
2 4.33321 2.44611 1.97832
2 8.61342 -0.00645555 1.94948
2 12.8855 17.3592 1.93725
2 -0.00403013 9.92776 1.90437
2 4.29584 7.46615 1.94125
2 8.64079 4.95115 1.97031
2 12.9148 2.48308 1.93254
2 -0.00787441 14.8745 1.94215
2 4.29477 12.4144 1.92046
2 8.57907 9.91827 1.92007
2 12.8855 7.44033 1.90954
2 0.0131526 -0.0365421 8.72851
2 4.31511 17.3159 8.72813
2 8.59549 14.8786 8.72001
2 12.8744 12.3948 8.72273
2 -0.0419806 5.01128 8.55883
2 4.26816 2.45376 8.77779
2 8.5984 -0.00105598 8.74023
2 12.8832 17.354 8.73179
2 -0.021944 9.92441 8.70735
2 4.21273 7.54358 8.58661
2 8.54656 4.94997 8.75609
2 12.8801 2.48383 8.72655
2 -0.00242894 14.8678 8.73375
2 4.29876 12.4085 8.71051
2 8.55918 9.90223 8.72353
2 12.8327 7.44001 8.70373
2 -0.0166403 -0.0749084 11.6828
2 4.30213 17.3429 11.6634
2 8.59532 14.8809 11.6555
2 12.8697 12.4001 11.6589
2 -0.264935 5.08905 11.4208
2 4.31741 2.4362 11.734
2 8.606 -0.0125504 11.6757
2 12.8899 17.3549 11.6691
2 -0.024254 9.94637 11.644
2 4.27636 7.54988 11.6739
2 8.6454 4.95038 11.7019
2 12.8924 2.45403 11.6747
2 -0.0112336 14.8786 11.6706
2 4.28631 12.4144 11.6564
2 8.57895 9.91829 11.6588
2 12.8629 7.46598 11.6494
2 2.89946 -0.0696789 9.3819
2 7.17338 17.3542 9.40205
2 11.4547 14.8755 9.39693
2 15.7356 12.4043 9.39084
2 2.72924 4.85115 9.49518
2 7.14472 2.471 9.43353
2 11.4608 -0.00302441 9.40292
2 15.7403 17.3344 9.41088
2 2.83503 9.96721 9.36559
2 7.10039 7.41133 9.4288
2 11.393 4.95278 9.37375
2 15.7424 2.47404 9.39761
2 2.85986 14.8692 9.3952
2 7.16136 12.404 9.37648
2 11.43 9.9283 9.38552
2 15.6812 7.47726 9.33808
2 2.864 -0.0206792 6.46633
2 7.16745 17.3525 6.4665
2 11.4498 14.8721 6.46125
2 15.7368 12.3907 6.45398
2 2.84112 4.9779 6.49717
2 7.15249 2.47966 6.49717
2 11.4593 0.004315 6.47006
2 15.7446 17.3472 6.47433
2 2.86226 9.94977 6.41982
2 7.1439 7.4437 6.46935
2 11.4313 4.96649 6.44956
2 15.7408 2.49125 6.45061
2 2.87106 14.8703 6.46021
2 7.16355 12.4063 6.44319
2 11.436 9.90722 6.44858
2 15.7268 7.44535 6.40304
2 2.88475 -0.0607141 13.3045
2 7.16992 17.3448 13.2632
2 11.448 14.876 13.2585
2 15.7327 12.4001 13.2539
2 3.24452 5.23369 13.1174
2 7.20948 2.44015 13.3004
2 11.4685 -0.0110287 13.2718
2 15.7381 17.3395 13.2845
2 2.83007 9.95767 13.257
2 7.13103 7.436 13.2547
2 11.481 4.96787 13.2714
2 15.8019 2.4923 13.2258
2 2.8672 14.8787 13.2596
2 7.15951 12.4113 13.2452
2 11.4373 9.91991 13.2538
2 15.7476 7.455 13.236
2 2.86612 -0.0334302 2.65047
2 7.16829 17.3613 2.60803
2 11.4529 14.8799 2.60156
2 15.7358 12.4006 2.59635
2 2.87752 4.9256 2.53533
2 7.178 2.46997 2.66022
2 11.4664 0.00915416 2.61452
2 15.7396 17.3442 2.62171
2 2.86116 9.9349 2.59122
2 7.1682 7.42802 2.60946
2 11.4767 4.95302 2.60813
2 15.7535 2.47291 2.59561
2 2.85641 14.8783 2.60141
2 7.15887 12.4046 2.587
2 11.4421 9.91356 2.59262
2 15.7487 7.43817 2.57121
2 1.52534 2.37122 0.505091
2 5.75355 -0.011238 0.354047
2 10.0292 17.3566 0.339727
2 14.3059 14.8711 0.342754
2 1.45017 7.46595 0.324872
2 5.83769 4.86881 0.511984
2 10.0603 2.47918 0.35512
2 14.3396 0.00948995 0.34162
2 1.41565 12.4262 0.331764
2 5.71094 9.94063 0.32602
2 10.0089 7.43592 0.333318
2 14.3452 4.96096 0.308137
2 1.42599 17.3367 0.353985
2 5.72885 14.8825 0.328168
2 10.0185 12.3989 0.33049
2 14.3015 9.92422 0.322163
2 1.38046 2.26894 10.8902
2 5.74672 -0.0269711 11.0116
2 10.0326 17.3517 10.9968
2 14.308 14.8691 11
2 1.41131 7.46765 10.952
2 5.76592 4.8817 11.1879
2 10.0322 2.46581 11.0063
2 14.3176 -0.00506824 10.9969
2 1.42321 12.408 10.9914
2 5.72272 9.95875 10.9841
2 10.0019 7.45186 10.9859
2 14.1647 4.96246 10.9362
2 1.44104 17.3309 10.9968
2 5.73704 14.8709 10.9846
2 10.0118 12.3955 10.9871
2 14.2966 9.93021 10.9786
2 1.43499 2.48143 4.20168
2 5.73607 -0.016263 4.23019
2 10.0267 17.3612 4.1998
2 14.3064 14.8703 4.20335
2 1.43841 7.44568 4.15183
2 5.71461 4.95735 4.2412
2 10.032 2.48369 4.21663
2 14.3165 0.00109988 4.20637
2 1.42709 12.4023 4.18849
2 5.7219 9.93346 4.17544
2 10.0227 7.43365 4.1947
2 14.3325 4.95952 4.16976
2 1.4327 17.3352 4.21234
2 5.73547 14.8791 4.18692
2 10.0159 12.3964 4.18881
2 14.3085 9.91262 4.174
2 1.44059 2.45744 7.12686
2 5.7292 -0.0056987 7.1612
2 10.0287 17.3595 7.13468
2 14.3112 14.8726 7.13654
2 1.39833 7.4752 7.07706
2 5.69191 4.94597 7.1912
2 10.0128 2.47818 7.15052
2 14.3213 -0.00116972 7.14091
2 1.41741 12.4097 7.12445
2 5.72846 9.95145 7.09654
2 9.98211 7.43289 7.12962
2 14.2752 4.96678 7.10195
2 1.43223 17.3317 7.13645
2 5.73499 14.8743 7.11962
2 10.0164 12.3918 7.12479
Atoms. Times479
Atoms.479
A479
Atoms. Timestep: 970
1 1.29379 19.0757 3.42972
1 5.5955 16.6097 3.39671
1 9.88585 14.1285 3.39322
1 14.1735 11.6404 3.38655
1 1.31185 4.20203 3.35224
1 5.58953 1.71422 3.44149
1 9.89627 19.0943 3.40487
1 14.1813 16.61 3.41165
1 1.29762 9.17838 3.37928
1 5.58961 6.68561 3.41264
1 9.89792 4.20957 3.40302
1 14.202 1.73088 3.38558
1 1.29166 14.1292 3.39944
1 5.59516 11.656 3.3837
1 9.87213 9.15775 3.39075
1 14.1935 6.67929 3.36666
1 0.0242376 1.51922 3.36007
1 4.29661 18.8535 3.41832
1 8.59411 16.3795 3.40286
1 12.878 13.8907 3.39978
1 0.0306002 6.45349 3.33901
1 4.31212 3.9779 3.3997
1 8.59667 1.50302 3.43806
1 12.8915 18.8629 3.40784
1 17.1709 11.4161 3.38812
1 4.30386 8.93048 3.39733
1 8.59355 6.45231 3.40727
1 12.9098 3.97696 3.38726
1 17.1723 16.3721 3.41171
1 4.29432 13.8974 3.39345
1 8.57992 11.4058 3.38979
1 12.8779 8.92428 3.37762
1 2.99672 1.72664 3.40761
1 7.30164 19.0905 3.41881
1 11.5902 16.6144 3.39918
1 15.8744 14.1282 3.40139
1 2.99145 6.68295 3.35428
1 7.29567 4.21363 3.45418
1 11.6058 1.73806 3.42007
1 15.8913 19.0987 3.40365
1 2.99309 11.6547 3.3968
1 7.27129 9.15624 3.39186
1 11.5947 6.67502 3.40025
1 15.9093 4.20116 3.35855
1 2.99922 16.6055 3.40332
1 7.29429 14.132 3.38694
1 11.5774 11.6407 3.39056
1 15.8821 9.16224 3.36473
1 3.00802 18.0734 10.206
1 7.3003 15.6238 10.191
1 11.5803 13.1438 10.1927
1 15.8744 10.6724 10.1848
1 2.88268 2.9447 10.0504
1 7.29942 0.754166 10.2213
1 11.5975 18.1074 10.2011
1 15.8781 15.6143 10.2071
1 3.0518 8.03404 10.1515
1 7.23287 5.68501 10.2312
1 11.5903 3.23218 10.1977
1 15.9157 0.763568 10.2353
1 2.99978 13.1404 10.1901
1 7.27482 10.6622 10.1647
1 11.5557 8.20128 10.183
1 15.7337 5.7071 10.1234
1 0.0720328 3.4727 10.3165
1 4.32041 0.934272 10.2387
1 8.60018 18.3425 10.205
1 12.8891 15.8608 10.1965
1 17.1558 8.42887 10.147
1 2.86317 4.95891 11.3276
1 8.58187 3.46405 10.2346
1 12.8982 0.988458 10.2047
1 17.1767 13.3766 10.1868
1 4.28479 10.8725 10.1659
1 8.54709 8.40771 10.199
1 12.8122 5.94755 10.1748
1 17.1583 18.3042 10.2274
1 4.30387 15.8439 10.1875
1 8.58977 13.376 10.1831
1 12.871 10.9006 10.1821
1 1.2989 0.626448 10.1886
1 5.60444 18.0867 10.2112
1 9.89151 15.6254 10.1961
1 14.1729 13.1429 10.1955
1 1.01017 5.78266 10.014
1 5.57565 3.25971 10.308
1 9.8999 0.747911 10.2005
1 14.1914 18.1108 10.2056
1 1.30193 10.6639 10.1806
1 5.49239 8.10612 10.2326
1 9.851 5.70585 10.2182
1 14.1898 3.23446 10.1764
1 1.29862 15.6172 10.2012
1 5.58753 13.1374 10.1794
1 9.86482 10.6556 10.1947
1 14.1439 8.19918 10.1748
1 4.17142 19.0641 7.95853
1 8.4623 16.6128 7.93122
1 12.7458 14.1259 7.93069
1 17.0367 11.6441 7.91621
1 4.1187 4.24679 8.0751
1 8.44414 1.73557 7.95242
1 12.7576 19.0945 7.93983
1 17.0414 16.601 7.94165
1 4.13548 9.21968 7.8845
1 8.38912 6.67778 7.93828
1 12.7302 4.21218 7.92095
1 17.0683 1.74695 7.9893
1 4.16422 14.1286 7.91691
1 8.44272 11.6383 7.91317
1 12.7198 9.16189 7.90187
1 16.9747 6.72036 7.79763
1 2.8705 1.44506 7.88636
1 7.16181 18.858 7.95119
1 11.4545 16.3766 7.93509
1 15.7412 13.8904 7.93437
1 2.83939 6.49843 7.91043
1 7.12635 3.96844 7.97569
1 11.4581 1.50612 7.93707
1 15.7545 18.8619 7.94229
1 2.84902 11.4305 7.91996
1 7.09889 8.91063 7.94017
1 11.4084 6.45112 7.91768
1 15.7456 3.98913 7.89129
1 2.86826 16.3628 7.93207
1 7.16452 13.8933 7.92099
1 11.4369 11.4062 7.93057
1 15.7159 8.94962 7.91683
1 1.56875 19.057 7.92246
1 5.87194 16.6001 7.92599
1 10.1532 14.1257 7.9216
1 14.4374 11.6473 7.91788
1 1.51537 4.2044 7.94274
1 5.84125 1.73514 7.98001
1 10.1648 19.0926 7.93684
1 14.4523 16.6098 7.93661
1 1.57254 9.16988 7.9358
1 5.73588 6.65086 8.05236
1 10.1293 4.20986 7.9585
1 14.4684 1.73542 7.93648
1 1.56388 14.1286 7.93034
1 5.85563 11.6586 7.90879
1 10.1196 9.15293 7.92543
1 14.4083 6.69347 7.89529
1 1.59083 0.698123 1.17758
1 5.86767 18.1093 1.14586
1 10.1586 15.6275 1.13138
1 14.4421 13.1406 1.13085
1 1.60761 5.67101 0.986971
1 5.92972 3.19744 1.26445
1 10.1846 0.755905 1.1602
1 14.4617 18.1151 1.14891
1 1.55489 10.6893 1.10354
1 5.83609 8.17085 1.07278
1 10.1742 5.70562 1.14112
1 14.5153 3.24002 1.12379
1 1.56208 15.6248 1.14517
1 5.86304 13.1524 1.12043
1 10.1468 10.6589 1.12224
1 14.4603 8.18223 1.10965
1 2.87729 18.3229 1.14212
1 7.16322 15.863 1.1277
1 11.4499 13.3768 1.12699
1 15.7426 10.8954 1.11089
1 2.88691 3.41937 1.15165
1 7.18847 0.96818 1.14525
1 11.4675 18.3472 1.1315
1 15.7399 15.8601 1.14109
1 2.8558 8.47274 1.17571
1 7.15885 5.92867 1.17078
1 11.496 3.46668 1.1444
1 15.8055 1.00717 1.12191
1 2.85805 13.3906 1.13
1 7.1499 10.8915 1.11979
1 11.4463 8.41168 1.125
1 15.7781 5.94936 1.08638
1 4.15377 0.747915 1.12628
1 8.46699 18.1061 1.1442
1 12.7512 15.6277 1.14047
1 17.0325 13.1533 1.13609
1 4.21093 5.7134 1.11934
1 8.4961 3.22433 1.16679
1 12.7848 0.764874 1.13665
1 17.0488 18.0948 1.15329
1 4.15756 10.6964 1.13961
1 8.43596 8.18238 1.1256
1 12.7751 5.70794 1.10358
1 17.1685 3.26694 1.00972
1 4.16243 15.6248 1.13174
1 8.4521 13.1436 1.12546
1 12.7396 10.6608 1.12523
1 17.0632 8.18266 1.08206
1 2.6745 1.88376 12.5036
1 7.02997 19.081 12.4703
1 11.3242 16.6096 12.4624
1 15.6041 14.1296 12.4642
1 2.84363 6.97311 12.6048
1 7.1707 4.2107 12.5318
1 11.3487 1.71652 12.4722
1 15.6296 19.0912 12.4904
1 2.71828 11.68 12.4491
1 6.98875 9.15423 12.4199
1 11.3141 6.68562 12.4575
1 15.6715 4.23279 12.424
1 2.72653 16.613 12.4651
1 7.02628 14.1391 12.448
1 11.3069 11.646 12.454
1 15.605 9.16363 12.4339
1 5.74864 1.48893 12.5082
1 10.0334 18.8528 12.473
1 14.3146 16.3774 12.472
1 1.4059 8.98353 12.4165
1 5.65427 6.4451 12.3386
1 10.0922 3.97025 12.4804
1 14.3573 1.51009 12.4561
1 1.42244 13.9095 12.4677
1 5.74609 11.4492 12.4278
1 10.0062 8.92934 12.4505
1 14.3225 6.45375 12.4205
1 1.44152 18.8809 12.4892
1 5.72773 16.3768 12.4683
1 10.0153 13.8926 12.4587
1 14.3042 11.4109 12.4501
1 0.233916 1.81168 12.4225
1 4.42438 19.0895 12.4746
1 8.73154 16.6105 12.4597
1 13.0129 14.128 12.459
1 0.150658 6.65809 12.3472
1 4.71613 4.13514 12.6412
1 8.76051 1.71862 12.4804
1 13.0396 19.0978 12.4605
1 0.121869 11.6667 12.444
1 4.42741 9.29135 12.4666
1 8.71459 6.68334 12.4787
1 13.0534 4.21195 12.437
1 0.138773 16.616 12.4757
1 4.42769 14.1362 12.454
1 8.71302 11.6426 12.4496
1 13.0045 9.16989 12.4546
1 0.136693 3.23219 5.64944
1 4.42869 0.739425 5.6828
1 8.73089 18.113 5.67552
1 13.0186 15.6249 5.66885
1 0.136772 8.20358 5.62059
1 4.41445 5.71577 5.70984
1 8.71086 3.23851 5.69542
1 13.0323 0.76005 5.67133
1 0.130808 13.1437 5.66536
1 4.43252 10.6777 5.63236
1 8.70243 8.18692 5.6765
1 13.0065 5.70823 5.65906
1 0.131149 18.0974 5.67838
1 4.43464 15.6242 5.66263
1 8.72308 13.1434 5.65043
1 13.0081 10.6591 5.6572
1 1.42244 0.987321 5.66475
1 5.73351 18.3373 5.67395
1 10.0264 15.8627 5.66229
1 14.3103 13.3739 5.65922
1 1.41419 5.9399 5.66238
1 5.69571 3.46431 5.72306
1 10.0265 0.993518 5.68446
1 14.3245 18.3476 5.67229
1 1.4297 10.8999 5.64376
1 5.70207 8.39858 5.70201
1 9.99464 5.94084 5.67481
1 14.3109 3.46549 5.65481
1 1.43199 15.856 5.66862
1 5.73212 13.3813 5.65037
1 10.0129 10.8905 5.65424
1 14.3077 8.41477 5.62401
1 2.73486 3.23485 5.7078
1 7.02227 0.755559 5.69734
1 11.327 18.1127 5.67152
1 15.6101 15.6214 5.67513
1 2.72959 8.19116 5.65447
1 6.99507 5.71664 5.70353
1 11.3097 3.24278 5.66182
1 15.6331 0.761561 5.67021
1 2.72708 13.1479 5.65876
1 7.01313 10.6547 5.65843
1 11.2986 8.17974 5.64201
1 15.6087 5.70417 5.6079
1 2.73321 18.0987 5.66527
1 7.03001 15.6252 5.66069
1 11.3142 13.139 5.6629
1 15.6028 10.6629 5.64326
2 0.0049425 19.8187 4.88669
2 4.29986 17.3492 4.87361
2 8.59764 14.8826 4.85911
2 12.877 12.3918 4.86277