LAMMPS (28 Jun 2014)
Processor partition = 4
Reading data file ...
  orthogonal box = (0 0 0) to (17.1781 19.8356 13.5931)
  1 by 1 by 1 MPI processor grid
  reading atoms ...
  479 atoms
287 atoms in group oxygen
192 atoms in group chromium
WARNING: Resetting reneighboring criteria during minimization (../min.cpp:168)
PPPM initialization ...
WARNING: System is not charge neutral, net charge = 2 (../kspace.cpp:278)
  G vector (1/distance) = 0.315056
  grid = 18 18 15
  stencil order = 5
  estimated absolute RMS force accuracy = 0.00121379
  estimated relative force accuracy = 8.42928e-05
  using double precision FFTs
  3d grid and FFT values/proc = 13750 4860
Setting up minimization ...
Memory usage per processor = 4.77636 Mbytes
Step PotEng Pxx Pyy Pzz Pxy Pxz Pyz Lx Ly Lz Temp 
       0   -14774.946   -140198.46   -136495.44   -34245.465   -1681.7555    4590.0313    631.96766      17.1781      19.8356     13.59308            0 
     100   -14849.294   -85225.766   -84727.699   -188155.91   -707.52405    2512.0897   -1898.5523      17.1781      19.8356     13.59308 0.0070665995 
     200   -14849.027   -85093.511   -84155.915    -188057.3    -786.4293    2724.3167   -2328.8933      17.1781      19.8356     13.59308  0.014102599 
     300   -14849.011   -85056.965   -83974.586   -187876.44   -782.74311    2803.9914   -2525.6271      17.1781      19.8356     13.59308 0.00015970686 
     400   -14849.096    -85068.73   -84027.459   -187747.16   -749.13372    2810.4926    -2550.408      17.1781      19.8356     13.59308  0.000518457 
     500   -14849.136   -85075.875   -84065.845   -187696.94   -734.27261    2809.1291   -2546.1299      17.1781      19.8356     13.59308 0.00056940947 
     600   -14849.166   -85082.002    -84094.71   -187663.78    -722.5419    2806.7207   -2541.6096      17.1781      19.8356     13.59308 0.00029982457 
     700   -14849.183   -85085.165   -84111.398   -187643.89   -716.10017    2805.3496   -2537.8963      17.1781      19.8356     13.59308 0.00011478125 
     800   -14849.194   -85087.555   -84122.982   -187631.95   -711.76454    2804.4211   -2535.4238      17.1781      19.8356     13.59308 1.7668252e-07 
     900   -14849.197   -85088.328   -84125.998   -187628.16   -710.48075    2804.2129   -2534.5682      17.1781      19.8356     13.59308 1.4715153e-06 
     969   -14849.199   -85088.748   -84128.241   -187625.51   -709.56827    2804.0182   -2533.9737      17.1781      19.8356     13.59308 1.6594427e-07 
Loop time of 47.8181 on 1 procs for 969 steps with 479 atoms

Minimization stats:
  Stopping criterion = force tolerance
  Energy initial, next-to-last, final = 
        -14774.9462737     -14849.1993928     -14849.1994026
  Force two-norm initial, final = 77.0627 0.000945994
  Force max component initial, final = 13.5409 0.000220875
  Final line search alpha, max atom move = 0 0
  Iterations, force evaluations = 969 969

Pair  time (%) = 21.1366 (44.2021)
Kspce time (%) = 3.25779 (6.81288)
Neigh time (%) = 0 (0)
Comm  time (%) = 0.0672772 (0.140694)
Outpt time (%) = 0.000260353 (0.000544465)
Other time (%) = 23.3562 (48.8438)

Nlocal:    479 ave 479 max 479 min
Histogram: 1 0 0 0 0 0 0 0 0 0
Nghost:    6483 ave 6483 max 6483 min
Histogram: 1 0 0 0 0 0 0 0 0 0
Neighs:    178998 ave 178998 max 178998 min
Histogram: 1 0 0 0 0 0 0 0 0 0

Total # of neighbors = 178998
Ave neighs/atom = 373.691
Neighbor list builds = 0
Dangerous builds = 0
WARNING: Resetting reneighboring criteria during minimization (../min.cpp:168)
Setting up minimization ...
Memory usage per processor = 4.77636 Mbytes
Step PotEng Pxx Pyy Pzz Pxy Pxz Pyz Lx Ly Lz Temp 
     969   -14849.199   -85088.748   -84128.241   -187625.51   -709.56827    2804.0182   -2533.9737      17.1781      19.8356     13.59308            0 
     970   -14849.199   -85088.748   -84128.241   -187625.51   -709.56827    2804.0182   -2533.9737      17.1781      19.8356     13.59308 5.5607041e-08 
Loop time of 0.158891 on 1 procs for 1 steps with 479 atoms

Minimization stats:
  Stopping criterion = force tolerance
  Energy initial, next-to-last, final = 
        -14849.1994026     -14849.1994026     -14849.1994026
  Force two-norm initial, final = 0.000945994 0.000945994
  Force max component initial, final = 0.000220875 0.000220875
  Final line search alpha, max atom move = 0 0
  Iterations, force evaluations = 1 1

Pair  time (%) = 0.0443962 (27.9413)
Kspce time (%) = 0.00425386 (2.67722)
Neigh time (%) = 0 (0)
Comm  time (%) = 0.000137091 (0.0862797)
Outpt time (%) = 0 (0)
Other time (%) = 0.110104 (69.2952)

Nlocal:    479 ave 479 max 479 min
Histogram: 1 0 0 0 0 0 0 0 0 0
Nghost:    6483 ave 6483 max 6483 min
Histogram: 1 0 0 0 0 0 0 0 0 0
Neighs:    180706 ave 180706 max 180706 min
Histogram: 1 0 0 0 0 0 0 0 0 0

Total # of neighbors = 180706
Ave neighs/atom = 377.257
Neighbor list builds = 0
Dangerous builds = 0
