

variable      mytemp equal  2000

# -------------------- FORCE FIELDS ----------------------
pair_style buck/coul/long 10.0 10.0

read_data	NPT_relaxed_2000.data
  orthogonal box = (0.0462487 0.0534038 0.048796) to (77.2548 89.2068 81.5097)
  1 by 5 by 3 MPI processor grid
  reading atoms ...
  58365 atoms
  reading velocities ...
  58365 velocities

pair_coeff    * * 1e-30 1e-30 0.0
pair_coeff    1 2 1204.18 0.3165   0.0
pair_coeff    1 1 9547.96 0.21916  32.0

kspace_style    pppm 0.0001

## Define group
group oxygen type 1
35019 atoms in group oxygen
group chromium type 2
23346 atoms in group chromium


## --------------------- NVT  --------------------
compute allmsd all displace/atom

#dump          2 all custom 25000  dump/dump id type xu yu zu c_allmsd[1] c_allmsd[2] c_allmsd[3] c_allmsd[4]
#dump          1 all xyz 25000 xyz/all.xyz
#dump_modify   1 element O Cr



compute   Omsd oxygen msd com yes
compute   Crmsd chromium msd com yes
variable  OMSDX equal "c_Omsd[1]"
variable  OMSDY equal "c_Omsd[2]"
variable  OMSDZ equal "c_Omsd[3]"
variable  OMSDAll equal "c_Omsd[4]"

variable  CrMSDX equal "c_Crmsd[1]"
variable  CrMSDY equal "c_Crmsd[2]"
variable  CrMSDZ equal "c_Crmsd[3]"
variable  CrMSDAll equal "c_Crmsd[4]"

thermo          1000
thermo_style    custom step pe ke press lx ly lz temp c_Omsd[1]  c_Omsd[2]  c_Omsd[3]  c_Omsd[4]  c_Crmsd[1]  c_Crmsd[2]  c_Crmsd[3]  c_Crmsd[4]


fix          1 all print 100 "${OMSDX}   ${OMSDY}   ${OMSDZ}  ${OMSDAll}  ${CrMSDX}   ${CrMSDY}   ${CrMSDZ}  ${CrMSDAll}" file MSD2000.data screen no
fix          3 all nvt temp ${mytemp} ${mytemp} 0.01
fix          3 all nvt temp 2000 ${mytemp} 0.01
fix          3 all nvt temp 2000 2000 0.01

run      1000000
PPPM initialization ...
  G vector (1/distance) = 0.308788
  grid = 72 80 75
  stencil order = 5
  estimated absolute RMS force accuracy = 0.00179588
  estimated relative force accuracy = 0.000124717
  using double precision FFTs
  3d grid and FFT values/proc = 58144 28800
Memory usage per processor = 12.6291 Mbytes
Step PotEng KinEng Press Lx Ly Lz Temp Omsd[1] Omsd[2] Omsd[3] Omsd[4] Crmsd[1] Crmsd[2] Crmsd[3] Crmsd[4] 
       0   -1793333.7    15067.115    1008.8867    77.208503    89.153392    81.460908    1997.1947            0 1.3130228e-28 5.0983045e-29 1.8228533e-28            0            0 5.1001787e-29 5.1001787e-29 
    1000   -1793284.1    15110.837    895.50466    77.208503    89.153392    81.460908    2002.9902  0.038287251  0.041543325   0.05266344   0.13249402  0.031440981  0.032627337  0.042516883    0.1065852 
    2000   -1793325.5    15069.872    989.01324    77.208503    89.153392    81.460908    1997.5602  0.039877281  0.040241395  0.052408417   0.13252709  0.031713268   0.03059628  0.040329454     0.102639 
    3000   -1793242.7    15084.496    869.01076    77.208503    89.153392    81.460908    1999.4986  0.039774829  0.042538185  0.055154243   0.13746726  0.030767288  0.031618436  0.041536868   0.10392259 
    4000   -1793204.3    15046.412    1965.6639    77.208503    89.153392    81.460908    1994.4504  0.040443208  0.041863659  0.054478034    0.1367849  0.031400197  0.031157084  0.043066325   0.10562361 
    5000   -1793180.7    15081.001    2081.6526    77.208503    89.153392    81.460908    1999.0354  0.041413108  0.043112794  0.056921669   0.14144757  0.031189025  0.032660404  0.045153186   0.10900262 
    6000   -1793272.9     15084.17    1346.6974    77.208503    89.153392    81.460908    1999.4554   0.04123817  0.042002507  0.055658403   0.13889908  0.031627966  0.031274139  0.044237811   0.10713992 
    7000   -1793167.4      15087.1    2050.8358    77.208503    89.153392    81.460908    1999.8439  0.041053749  0.041899259  0.055808177   0.13876118  0.032070869  0.030624131  0.043019312   0.10571431 
    8000   -1793221.1    15098.916    1282.1184    77.208503    89.153392    81.460908    2001.4101  0.040373204  0.044788165  0.056759826    0.1419212  0.031109421  0.032669117  0.043440936   0.10721947 
    9000   -1793269.2    15013.086    1061.9498    77.208503    89.153392    81.460908    1990.0331  0.042163508  0.043127236  0.057343274   0.14263402  0.031724168  0.031045524  0.042825465   0.10559516 
   10000   -1793262.9    15037.386    1223.5637    77.208503    89.153392    81.460908    1993.2541  0.042520155  0.045654991  0.057952158    0.1461273  0.030953949  0.032098051  0.043582628   0.10663463 
   11000     -1793280    15061.019     943.0069    77.208503    89.153392    81.460908    1996.3867  0.042998033  0.043312786  0.056366536   0.14267735   0.03194995  0.031607188  0.043271024   0.10682816 
   12000   -1793255.2    15065.174    1684.8717    77.208503    89.153392    81.460908    1996.9375  0.042905234  0.044924966  0.059975384   0.14780558  0.031482406  0.031292563  0.046435365   0.10921033 
   13000     -1793293    15026.645    1297.3823    77.208503    89.153392    81.460908    1991.8303  0.043636596  0.043971728  0.059795723   0.14740405  0.030507519  0.031129939  0.046574221   0.10821168 
   14000   -1793242.3    15091.141    1470.4502    77.208503    89.153392    81.460908    2000.3795   0.04454867  0.044966506  0.057911709   0.14742688  0.031703683  0.031251506  0.043659211    0.1066144 
   15000   -1793292.8    15009.781    537.16858    77.208503    89.153392    81.460908    1989.5949  0.044663267  0.047714666  0.059736916   0.15211485   0.03131614  0.032915456  0.044889994   0.10912159 
   16000   -1793237.3    15115.525    1481.2292    77.208503    89.153392    81.460908    2003.6116  0.045005109  0.045525102  0.060751523   0.15128173  0.030897403  0.031020223  0.045246495   0.10716412 
   17000   -1793219.7    15117.958    1898.9959    77.208503    89.153392    81.460908    2003.9342  0.046383728  0.048536526  0.063167535   0.15808779  0.031435069  0.032999267  0.046024441   0.11045878 
   18000   -1793228.3    15139.997    1606.6095    77.208503    89.153392    81.460908    2006.8555  0.046763748  0.047166506  0.063945656   0.15787591  0.031713998  0.031528583  0.045581586   0.10882417 
   19000     -1793200    15132.678    1613.0114    77.208503    89.153392    81.460908    2005.8853  0.046710153  0.046813876  0.064273432   0.15779746  0.031620158  0.031060085  0.044819155    0.1074994 
   20000   -1793256.5    15053.199    1148.0739    77.208503    89.153392    81.460908    1995.3501  0.047761597  0.047298511  0.063450651   0.15851076  0.032172407  0.030975022  0.045068978   0.10821641 
   21000   -1793250.3    15071.931    1783.4874    77.208503    89.153392    81.460908    1997.8331  0.047238885  0.047293579  0.065114601   0.15964707  0.031256529    0.0314823  0.045553266    0.1082921 
   22000   -1793245.2    15153.834    1825.9608    77.208503    89.153392    81.460908    2008.6896  0.049549615  0.048192176  0.063606135   0.16134793  0.032428691  0.032088315  0.045072052   0.10958906 
   23000   -1793347.3    15095.673    1239.5096    77.208503    89.153392    81.460908    2000.9803  0.048164408  0.047561166  0.067006214   0.16273179  0.031498508  0.030883789  0.047015841   0.10939814 
   24000     -1793172    15118.368    1819.2718    77.208503    89.153392    81.460908    2003.9885  0.048689339  0.050280662  0.065005484   0.16397549  0.031239824  0.032274946  0.045469203   0.10898397 
   25000   -1793231.6    15098.434    1843.6331    77.208503    89.153392    81.460908    2001.3461  0.050655015  0.049821704   0.06758841   0.16806513  0.031854444   0.03125869   0.04658543   0.10969856 
   26000   -1793156.2    15131.307    2172.5243    77.208503    89.153392    81.460908    2005.7036  0.051244775  0.050589081  0.067489227   0.16932308   0.03124983  0.031643723  0.046150805   0.10904436 
   27000   -1793245.9    15167.514    1481.4472    77.208503    89.153392    81.460908     2010.503  0.052601534  0.050619435  0.066917972   0.17013894  0.031947593  0.031501696  0.046793571   0.11024286 
   28000   -1793268.6    15047.239    1858.3318    77.208503    89.153392    81.460908    1994.5601  0.052676201  0.050331606  0.067069739   0.17007755  0.031589803  0.030870133  0.046162512   0.10862245 
   29000   -1793255.4    15110.094    1337.3555    77.208503    89.153392    81.460908    2002.8918  0.050953537  0.049791045  0.068329072   0.16907365  0.031623168  0.030781926  0.046716629   0.10912172 
   30000   -1793296.7    15103.719    1153.3168    77.208503    89.153392    81.460908    2002.0468  0.052163481  0.050993419  0.068272566   0.17142947  0.031761248  0.031134382  0.047265434   0.11016106 
   31000   -1793294.1    15096.347    1619.7972    77.208503    89.153392    81.460908    2001.0696  0.051213522  0.051914072  0.068699322   0.17182692  0.031005306  0.032357107  0.046183303   0.10954572 
   32000   -1793176.9     15210.45    2264.0924    77.208503    89.153392    81.460908    2016.1942  0.053526523  0.051779233  0.069413139    0.1747189   0.03223631  0.031111181  0.046037734   0.10938523 
   33000   -1793225.5     15018.13    1954.1259    77.208503    89.153392    81.460908    1990.7016  0.052219476  0.052178968  0.070193134   0.17459158  0.031268957  0.031043459  0.046380395   0.10869281 
   34000   -1793257.5      15093.8    1346.4114    77.208503    89.153392    81.460908    2000.7319  0.053404611  0.052547445  0.071824644    0.1777767  0.031254757  0.031449119  0.045423016   0.10812689 
   35000   -1793252.7    15019.066    1525.4571    77.208503    89.153392    81.460908    1990.8257  0.053965764  0.053410513  0.070770331   0.17814661  0.031771862  0.031634126  0.045770414    0.1091764 
   36000   -1793254.8    15117.797    1253.7576    77.208503    89.153392    81.460908    2003.9128   0.05545972  0.053943052  0.073117138   0.18251991  0.031909567  0.031660891  0.046865103   0.11043556 
   37000   -1793316.8    15143.723    1614.9368    77.208503    89.153392    81.460908    2007.3494  0.056006148  0.052997134  0.073168421    0.1821717  0.031204329  0.030604865   0.04661348   0.10842267 
   38000   -1793291.3    15086.481    1323.3768    77.208503    89.153392    81.460908    1999.7617  0.056800296  0.055649827  0.072409045   0.18485917  0.032019304  0.032560355  0.045536952   0.11011661 
   39000   -1793226.3    15159.511    1920.4578    77.208503    89.153392    81.460908    2009.4422  0.058122162  0.054889875  0.075316832   0.18832887  0.031438104  0.031035208  0.049429984    0.1119033 
   40000   -1793212.4    15090.629    1770.8776    77.208503    89.153392    81.460908    2000.3115  0.057862295  0.057052873  0.076407729    0.1913229  0.032241833  0.033248603  0.050196179   0.11568662 
   41000   -1793248.3    15056.862    939.78549    77.208503    89.153392    81.460908    1995.8356  0.057897675  0.056689775  0.075997858   0.19058531  0.031463831   0.03267969  0.051113777    0.1152573 
   42000   -1793197.7    15099.927    2048.9065    77.208503    89.153392    81.460908    2001.5441  0.057791586  0.056718525  0.077328028   0.19183814   0.03097689  0.032238532  0.051044742   0.11426016 
   43000   -1793303.6     15114.83    1607.8139    77.208503    89.153392    81.460908    2003.5195  0.058819535  0.056419833  0.075641845   0.19088121  0.031488529  0.030926457  0.048097353   0.11051234 
   44000   -1793257.3    15030.134    623.34665    77.208503    89.153392    81.460908    1992.2928  0.058896074    0.0580144  0.078356679   0.19526715  0.031770754  0.031494772  0.050447956   0.11371348 
   45000   -1793183.4    15103.873    1262.6987    77.208503    89.153392    81.460908    2002.0672  0.059271872  0.058590421  0.078147937   0.19601023  0.031715679  0.031907273  0.049093138   0.11271609 
   46000   -1793252.3    15107.365    1942.2124    77.208503    89.153392    81.460908      2002.53  0.060613137   0.05704111  0.077669072   0.19532332  0.031452907  0.030695474  0.050044505   0.11219289 
   47000   -1793230.6    15072.975    1407.7968    77.208503    89.153392    81.460908    1997.9715  0.059967905  0.059593664  0.079102381   0.19866395  0.031669476  0.032390348  0.050732259   0.11479208 
   48000   -1793211.1    15077.116    1634.3669    77.208503    89.153392    81.460908    1998.5204  0.059486475  0.057959298  0.078947699   0.19639347  0.031795782  0.031949585  0.050383561   0.11412893 
   49000   -1793380.6     15070.71    185.28712    77.208503    89.153392    81.460908    1997.6713  0.059510323  0.059068282  0.078529024   0.19710763  0.030942341  0.031520084   0.05105741   0.11351983 
   50000   -1793232.3     15139.48    1799.1079    77.208503    89.153392    81.460908     2006.787  0.060565069  0.060127445  0.080129376   0.20082189  0.032582562  0.032708181  0.050549164   0.11583991 
   51000   -1793249.5    15080.343    1439.9335    77.208503    89.153392    81.460908    1998.9482  0.059029325  0.059087062  0.079419228   0.19753561  0.031392225  0.032400361  0.050129683   0.11392227 
   52000   -1793267.6    15107.028    1719.3388    77.208503    89.153392    81.460908    2002.4854    0.0591486    0.0594139  0.079197503      0.19776  0.031516337  0.032315759  0.049708065   0.11354016 
   53000   -1793251.8    15132.275    862.35434    77.208503    89.153392    81.460908    2005.8319  0.061333003  0.058516779  0.079858406   0.19970819  0.031926348  0.031188245  0.049032206    0.1121468 
   54000   -1793222.1    15037.779    774.24347    77.208503    89.153392    81.460908    1993.3062  0.061283845   0.06074185  0.080243608    0.2022693   0.03232961   0.03294991  0.049512315   0.11479183 
   55000   -1793310.3    15118.515    1012.8122    77.208503    89.153392    81.460908    2004.0079  0.061800361  0.059776444  0.081407162   0.20298397  0.033599287   0.03213154  0.051323981   0.11705481 
   56000   -1793274.2    15095.994    1403.8894    77.208503    89.153392    81.460908    2001.0227  0.061991175  0.061328793  0.082209918   0.20552989  0.031376172  0.032478691  0.050174037    0.1140289 
   57000   -1793245.7     15111.53    1425.1238    77.208503    89.153392    81.460908     2003.082  0.062683877  0.061971077  0.081115454   0.20577041  0.031480052   0.03278748  0.050529741   0.11479727 
   58000   -1793202.9    15102.177    1951.8244    77.208503    89.153392    81.460908    2001.8423  0.063366186  0.062590003  0.082387695   0.20834388  0.032013331  0.032982545  0.051025403   0.11602128 
   59000     -1793168    15108.828     1517.118    77.208503    89.153392    81.460908    2002.7239  0.063492455   0.06318268  0.083964389   0.21063952  0.032589158  0.032379697   0.05081949   0.11578834 
   60000   -1793272.6    15117.829    1221.8196    77.208503    89.153392    81.460908    2003.9171  0.063644706  0.062600255  0.085605427   0.21185039  0.031656358  0.032126771  0.053071166    0.1168543 
   61000   -1793133.2    15076.657    2085.3197    77.208503    89.153392    81.460908    1998.4596  0.064519635  0.062333806  0.087089068   0.21394251  0.032013805  0.031852103  0.053610612   0.11747652 
   62000   -1793257.6    15036.519     1089.784    77.208503    89.153392    81.460908    1993.1391  0.066288756  0.063136002  0.085338365   0.21476312  0.032383085  0.032360349  0.052610008   0.11735344 
   63000   -1793269.1    14995.081    1445.4645    77.208503    89.153392    81.460908    1987.6464  0.064462022  0.064468812  0.085975989   0.21490682  0.031195901  0.032506741  0.054299191   0.11800183 
   64000   -1793171.5    15140.712    1713.9814    77.208503    89.153392    81.460908    2006.9503  0.065359305   0.06529966  0.087084595   0.21774356  0.031020905  0.032348538  0.054513223   0.11788267 
   65000   -1793254.1    15091.155     1399.352    77.208503    89.153392    81.460908    2000.3813  0.066570435  0.065371606  0.086294106   0.21823615  0.031858201   0.03246949  0.051801652   0.11612934 
   66000   -1793223.7    15093.765    2012.6832    77.208503    89.153392    81.460908    2000.7273  0.066669263  0.066871618  0.088406432   0.22194731  0.031610708  0.033458701  0.053697827   0.11876724 
   67000   -1793196.7    15184.588    1784.4917    77.208503    89.153392    81.460908    2012.7662  0.067392812  0.067582972  0.088695626   0.22367141   0.03222932  0.031970565  0.052288642   0.11648853 
   68000   -1793198.6    15067.721    2030.3517    77.208503    89.153392    81.460908    1997.2751  0.066841805  0.067411593  0.089738686   0.22399208  0.031841676  0.032555181  0.054236412   0.11863327 
   69000     -1793247    15061.632    1597.6686    77.208503    89.153392    81.460908     1996.468  0.067314853  0.068678908  0.089377108   0.22537087  0.032226171  0.033285719  0.051646913    0.1171588 
   70000   -1793220.3    15100.722    2067.8505    77.208503    89.153392    81.460908    2001.6494  0.069006184  0.069494309  0.091729135   0.23022963  0.033396727  0.032623227  0.052221095   0.11824105 
   71000   -1793210.1    15056.032    1526.4146    77.208503    89.153392    81.460908    1995.7257  0.068213147   0.06879444  0.089968289   0.22697588  0.031731824   0.03278708   0.05282603   0.11734493 
   72000   -1793199.8    15123.363    1833.3735    77.208503    89.153392    81.460908    2004.6507  0.068793345  0.069034063  0.092468289    0.2302957  0.033221028  0.031867828  0.053234623   0.11832348 
   73000   -1793265.7    15051.003    1388.7073    77.208503    89.153392    81.460908    1995.0591  0.066916889    0.0696566  0.093160338   0.22973383  0.032090503  0.032741028  0.053839063   0.11867059 
   74000   -1793330.1    15065.879    1591.1725    77.208503    89.153392    81.460908    1997.0309  0.068034636   0.06900364   0.09272338   0.22976166  0.032134497  0.031965551  0.052795481   0.11689553 
   75000   -1793235.8    15079.714    2002.6633    77.208503    89.153392    81.460908    1998.8648  0.068940282  0.070180701  0.094770962   0.23389195  0.032015189  0.033092421  0.054377419   0.11948503 
   76000   -1793216.6    15062.936    2161.1864    77.208503    89.153392    81.460908    1996.6408  0.070161843  0.070634747  0.094495066   0.23529166  0.032133968  0.032866024  0.053591445   0.11859144 
   77000   -1793078.6    15118.713    2205.5861    77.208503    89.153392    81.460908    2004.0342  0.070961495  0.071229711  0.093764506   0.23595571  0.031846698  0.032800622  0.053587746   0.11823507 
   78000     -1793125    14962.758    2725.5296    77.208503    89.153392    81.460908    1983.3619  0.071125117  0.071206013  0.094856959   0.23718809  0.032381122   0.03310972  0.054802869   0.12029371 
   79000   -1793353.7    15050.933    960.60441    77.208503    89.153392    81.460908    1995.0498  0.071531615  0.072463471  0.094650275   0.23864536  0.031971595  0.033374369  0.055208087   0.12055405 
   80000   -1793215.7    15084.457    1830.0095    77.208503    89.153392    81.460908    1999.4935  0.071180905  0.072283581  0.095199863   0.23866435  0.031927702  0.032363275  0.053869192   0.11816017 
   81000   -1793173.7    15086.596    1724.6619    77.208503    89.153392    81.460908     1999.777  0.072266495  0.073220187  0.096667627   0.24215431   0.03294583   0.03307181  0.054595334   0.12061297 
   82000     -1793246    15064.234    1034.7525    77.208503    89.153392    81.460908    1996.8128  0.072315857  0.073731034  0.096747511    0.2427944  0.032128412   0.03262493  0.054184315   0.11893766 
   83000     -1793270    15072.512    1304.2457    77.208503    89.153392    81.460908    1997.9101  0.073245099  0.074270497  0.097513254   0.24502885  0.031886678  0.032323174  0.054744251    0.1189541 
   84000     -1793316    15050.792    1809.0183    77.208503    89.153392    81.460908    1995.0311  0.073881612  0.073262748  0.099208966   0.24635333  0.031501614  0.032226859  0.056585655   0.12031413 
   85000   -1793226.4    15144.324    1551.6912    77.208503    89.153392    81.460908    2007.4291  0.073265537  0.074782106  0.097496205   0.24554385  0.032660629  0.033141371   0.05537022   0.12117222 
   86000   -1793247.4    15029.668    1781.4027    77.208503    89.153392    81.460908     1992.231  0.073281687   0.07440564   0.09709502   0.24478235  0.032944399  0.032176868  0.054232546   0.11935381 
   87000   -1793166.1    15108.014     2040.166    77.208503    89.153392    81.460908     2002.616  0.074271027  0.073941245   0.10033686   0.24854913  0.031874732  0.031953025  0.058322546    0.1221503 
   88000   -1793249.6    14993.186    1791.7928    77.208503    89.153392    81.460908    1987.3952  0.075607888  0.074969499   0.10019674   0.25077413  0.032674496  0.032825581   0.05804337   0.12354345 
   89000   -1793151.8    15178.512    2633.4402    77.208503    89.153392    81.460908    2011.9608  0.073916736  0.075849806  0.098958683   0.24872522  0.031936481  0.033155656  0.056857135   0.12194927 
   90000   -1793147.7    15174.899    2273.5197    77.208503    89.153392    81.460908    2011.4819  0.075015041  0.074578914   0.10164737   0.25124132  0.031729589  0.032510468   0.05693878   0.12117884 
   91000   -1793266.2    15028.495    961.43377    77.208503    89.153392    81.460908    1992.0756  0.075571526  0.075808001   0.10130349   0.25268302  0.032155556   0.03275217  0.056559474    0.1214672 
   92000   -1793322.6    15081.311    1173.1959    77.208503    89.153392    81.460908    1999.0765  0.076753198  0.076916848   0.10256866    0.2562387   0.03183164  0.031937354  0.055894407    0.1196634 
   93000   -1793275.8    15102.291    1377.5033    77.208503    89.153392    81.460908    2001.8575  0.077717017  0.076997295   0.10199326   0.25670757  0.032654854  0.033023667  0.054808655   0.12048718 
   94000   -1793301.7    15094.722    1227.2282    77.208503    89.153392    81.460908    2000.8542  0.078808784   0.07730862   0.10272986   0.25884727  0.032055713  0.032989492  0.057071656   0.12211686 
   95000   -1793304.1    15169.239    1379.4693    77.208503    89.153392    81.460908    2010.7316  0.077933444  0.077326639   0.10342825   0.25868833  0.032583115  0.031851939  0.056324848    0.1207599 
   96000   -1793308.8     15021.15    1313.7113    77.208503    89.153392    81.460908     1991.102  0.078250745  0.079001115   0.10446501   0.26171687  0.031538821  0.032837221  0.055849608   0.12022565 
   97000   -1793241.4    15134.296    1415.3683    77.208503    89.153392    81.460908    2006.0997  0.078147326  0.078791003   0.10191997    0.2588583  0.032199317  0.034088426  0.055783166   0.12207091 
   98000   -1793263.8    15051.837    830.30364    77.208503    89.153392    81.460908    1995.1696  0.078113046  0.079227069   0.10357133   0.26091144  0.031737193  0.033243412  0.054613361   0.11959397 
   99000   -1793267.3    15105.293    1487.9329    77.208503    89.153392    81.460908    2002.2554  0.078431577  0.078974482    0.1047683   0.26217435  0.031730268  0.031789865  0.055008803   0.11852894 
  100000   -1793289.9    15046.176    1386.4318    77.208503    89.153392    81.460908    1994.4193  0.080749289  0.081374509   0.10506755   0.26719135  0.033736996  0.033627354  0.055313437   0.12267779 
  101000   -1793218.9    15007.991    1714.0589    77.208503    89.153392    81.460908    1989.3577  0.080628061  0.080321647   0.10575541   0.26670512  0.032533968  0.031988702  0.057235264   0.12175793 
  102000   -1793266.8    15158.399    991.28496    77.208503    89.153392    81.460908    2009.2948  0.079613778  0.079580182   0.10466726   0.26386122  0.031809704   0.03178844   0.05489869   0.11849683 
  103000   -1793247.6    15110.406    1310.5854    77.208503    89.153392    81.460908    2002.9331  0.081134329  0.081606625   0.10801145    0.2707524  0.033208531  0.032986194  0.057941835   0.12413656 
  104000   -1793191.1    14917.762     1669.302    77.208503    89.153392    81.460908    1977.3975  0.079108745  0.081061522   0.10645529   0.26662556  0.031332374   0.03226311  0.055207028   0.11880251 
  105000   -1793239.3    15146.653    1593.6464    77.208503    89.153392    81.460908    2007.7377  0.080824468   0.08160315   0.10933789   0.27176551  0.032101436  0.033438191   0.05685994   0.12239957 
  106000   -1793172.2    15176.555    2374.8318    77.208503    89.153392    81.460908    2011.7014  0.081438604   0.08178753   0.10900582   0.27223195  0.032673666  0.031630823  0.056451731   0.12075622 
  107000     -1793270    15093.967     642.1549    77.208503    89.153392    81.460908    2000.7541  0.080827716  0.082033912   0.10877108   0.27163271  0.033325053  0.031964987  0.055814266   0.12110431 
  108000   -1793259.6    15052.594     908.9663    77.208503    89.153392    81.460908    1995.2699  0.080447867  0.083375927   0.10900184   0.27282564  0.031648729  0.032728313  0.055540245   0.11991729 
  109000   -1793256.1     15077.59    1144.3367    77.208503    89.153392    81.460908    1998.5832   0.08204707  0.083147081   0.10877926   0.27397341  0.032769117  0.032341223  0.054924626   0.12003497 
  110000   -1793156.1    15137.952    2098.8321    77.208503    89.153392    81.460908    2006.5844  0.081260338   0.08364616   0.11112216   0.27602865   0.03251882  0.032706546  0.056415443   0.12164081 
  111000   -1793277.8    15114.628    1590.0813    77.208503    89.153392    81.460908    2003.4927  0.081000134  0.083085697   0.10989122   0.27397705  0.032090925  0.032102166  0.054163188   0.11835628 
  112000   -1793281.5    15113.384    1280.3915    77.208503    89.153392    81.460908    2003.3279  0.081424238  0.085409122   0.11081251   0.27764587  0.032062461  0.033912367  0.055299111   0.12127394 
  113000   -1793317.1    15179.869    1578.0237    77.208503    89.153392    81.460908    2012.1407  0.081938072  0.083519579   0.10969365    0.2751513  0.031304573  0.032072709  0.055108261   0.11848554 
  114000   -1793271.8     15152.32    1749.9726    77.208503    89.153392    81.460908     2008.489  0.081292935  0.084594751   0.11048109   0.27636878  0.030975593   0.03215907  0.055492223   0.11862689 
  115000   -1793174.4    15089.948    1789.2187    77.208503    89.153392    81.460908    2000.2213  0.082190572  0.085621574   0.11285242   0.28066456  0.031962199  0.033018277  0.057968933   0.12294941 
  116000   -1793200.8    15101.119    1979.2456    77.208503    89.153392    81.460908    2001.7021  0.082609643  0.085381339    0.1119542   0.27994518  0.031413617   0.03211072   0.05564894   0.11917328 
  117000   -1793285.1    15029.481    1161.2651    77.208503    89.153392    81.460908    1992.2062  0.083567824  0.087091548   0.11372975   0.28438912  0.031606647  0.033058191   0.05534123   0.12000607 
  118000   -1793281.9     15066.39    979.77169    77.208503    89.153392    81.460908    1997.0987  0.083253197  0.085783721   0.11176963   0.28080655  0.031458521  0.032573281   0.05444355   0.11847535 
  119000   -1793250.3    15047.205     2045.503    77.208503    89.153392    81.460908    1994.5557   0.08344071  0.086611199   0.11550054   0.28555245  0.032117397  0.032548321  0.056263743   0.12092946 
  120000   -1793307.6    15039.549    851.83412    77.208503    89.153392    81.460908    1993.5408  0.084159583  0.086959068   0.11260604    0.2837247  0.031535562  0.031934961   0.05372663   0.11719715 
  121000   -1793277.7    15084.505    767.91642    77.208503    89.153392    81.460908    1999.4998  0.085448053  0.087298911   0.11483763   0.28758459  0.031868379  0.033452505  0.058543604   0.12386449 
  122000   -1793247.4    15132.798    1963.7951    77.208503    89.153392    81.460908    2005.9012  0.084739713  0.086477635   0.11516561   0.28638296  0.032147993  0.032300532  0.055365591   0.11981412 
  123000   -1793285.7    15021.152    1244.8706    77.208503    89.153392    81.460908    1991.1021  0.085591247  0.087715339   0.11533659   0.28864318  0.031617752   0.03216266  0.056539998   0.12032041 
  124000   -1793243.1    15008.088    1334.4222    77.208503    89.153392    81.460908    1989.3705  0.086697589  0.088680552   0.11363901   0.28901715  0.033058204  0.033345242  0.054577006   0.12098045 
  125000   -1793326.4    15084.243    1144.4043    77.208503    89.153392    81.460908    1999.4652   0.08598433  0.087039934   0.11684808   0.28987234  0.032211474  0.032035996  0.057011162   0.12125863 
  126000   -1793244.2    15141.374    1637.2582    77.208503    89.153392    81.460908     2007.038   0.08787446  0.088727895   0.11704057   0.29364292  0.033210164  0.032751589  0.057065755   0.12302751 
  127000   -1793220.1    15084.299    1385.2364    77.208503    89.153392    81.460908    1999.4726  0.087903127   0.08823187   0.11765319   0.29378818  0.033096561  0.032409114  0.056611445   0.12211712 
  128000   -1793158.1    15084.165    1679.8924    77.208503    89.153392    81.460908    1999.4548   0.08737298  0.089403828   0.12011197   0.29688878  0.032044892  0.032574826  0.058154273   0.12277399 
  129000   -1793287.4    15078.756    225.58038    77.208503    89.153392    81.460908    1998.7378  0.087411353  0.088581085   0.11760993   0.29360237  0.031527226  0.032028164  0.056046903   0.11960229 
  130000   -1793218.4     15078.49    1846.9855    77.208503    89.153392    81.460908    1998.7026  0.087860563     0.089157   0.11923971   0.29625727  0.032645136  0.033057998  0.056703661   0.12240679 
  131000   -1793271.3     15054.33    1151.8831    77.208503    89.153392    81.460908    1995.5001  0.087576254  0.089329852   0.11722178   0.29412789  0.031989101  0.032898464  0.055989682   0.12087725 
  132000     -1793184    15072.779    2568.7196    77.208503    89.153392    81.460908    1997.9456  0.088239105  0.089612946   0.11895863   0.29681069  0.032316012  0.032757479  0.055788198   0.12086169 
  133000   -1793249.3    15101.285    1225.9185    77.208503    89.153392    81.460908    2001.7241  0.088903659  0.089660448   0.11996487   0.29852897  0.031753759  0.032131902    0.0543862   0.11827186 
  134000   -1793235.8    15000.739    1773.0963    77.208503    89.153392    81.460908    1988.3965   0.08983226  0.089569852   0.12038235   0.29978447  0.031948192   0.03287022  0.055206918   0.12002533 
  135000   -1793354.5    15086.193    1321.3869    77.208503    89.153392    81.460908    1999.7236  0.090783409  0.091811994   0.12178212   0.30437752  0.032587035  0.033504515  0.057290876   0.12338243 
  136000   -1793214.5    15131.922    2347.2268    77.208503    89.153392    81.460908    2005.7851  0.090142754   0.09137732   0.12279838   0.30431845  0.032880478  0.032789574   0.05743078   0.12310083 
  137000   -1793196.3     15093.72    1775.9431    77.208503    89.153392    81.460908    2000.7213  0.090615712  0.092930232    0.1226969   0.30624285  0.032644414   0.03257561  0.056451872    0.1216719 
  138000     -1793316    15122.376    1473.4892    77.208503    89.153392    81.460908    2004.5197  0.089859036  0.093162345   0.12388973   0.30691112  0.032157028   0.03329134  0.055756136    0.1212045 
  139000   -1793215.1    15128.415    1900.3145    77.208503    89.153392    81.460908    2005.3203  0.090208739  0.092370648   0.12295639   0.30553578   0.03178205  0.032952011  0.054324517   0.11905858 
  140000     -1793255    15053.791    1037.9221    77.208503    89.153392    81.460908    1995.4287    0.0911318  0.093737508   0.12330468   0.30817399  0.032012807  0.033702979    0.0545923   0.12030809 
  141000   -1793237.9    15092.081    1613.3121    77.208503    89.153392    81.460908     2000.504  0.091144573  0.093584162   0.12709666    0.3118254  0.031829149  0.032576966  0.056671954   0.12107807 
  142000     -1793153    15142.694    2037.6131    77.208503    89.153392    81.460908     2007.213  0.092503655  0.094412759    0.1244699   0.31138631  0.032586296  0.032835143    0.0540039   0.11942534 
  143000   -1793277.2    15068.159    1737.3156    77.208503    89.153392    81.460908    1997.3331  0.093595897  0.094020171    0.1263572   0.31397327  0.033094286   0.03302902  0.054547128   0.12067043 
  144000   -1793353.2    15055.389    952.48228    77.208503    89.153392    81.460908    1995.6405  0.091704631  0.093995751   0.12819457   0.31389495  0.031277111   0.03190153  0.055635235   0.11881388 
  145000   -1793326.9    15035.997    1342.7251    77.208503    89.153392    81.460908      1993.07  0.093326091  0.093459942   0.12794598   0.31473202  0.031743642  0.032456166  0.055722585   0.11992239 
  146000     -1793250    15054.142    1034.6714    77.208503    89.153392    81.460908    1995.4752  0.093519001  0.092795582    0.1295832   0.31589778  0.032592058  0.032121464  0.056359095   0.12107262 
  147000     -1793259    14988.032    979.74204    77.208503    89.153392    81.460908     1986.712  0.092727557  0.095162636    0.1292935    0.3171837  0.032639473  0.032919684  0.055496018   0.12105517 
  148000   -1793209.1    15061.886    1555.6044    77.208503    89.153392    81.460908    1996.5016  0.094323193  0.094265959   0.12892547   0.31751463  0.033153477  0.032578356  0.055989089   0.12172092 
  149000   -1793248.1    15103.698    1497.8783    77.208503    89.153392    81.460908     2002.044  0.094185175  0.096260693   0.13032437   0.32077024  0.032591677  0.033173303  0.054592049   0.12035703 
  150000   -1793236.7    15015.915    1016.5353    77.208503    89.153392    81.460908     1990.408  0.093800835  0.094663101   0.12967306     0.318137  0.032311419  0.032322632  0.056087554   0.12072161 
  151000   -1793259.2    15097.411     1333.266    77.208503    89.153392    81.460908    2001.2106  0.094177842  0.094457942    0.1309468   0.31958259   0.03176902  0.032552107   0.05617203   0.12049316 
  152000   -1793265.9    15097.035    1562.4857    77.208503    89.153392    81.460908    2001.1608  0.093209793  0.094739727   0.13105316   0.31900268  0.031232951  0.031935931  0.055584803   0.11875369 
  153000   -1793316.6    15105.544    1691.8758    77.208503    89.153392    81.460908    2002.2887  0.093563964  0.094256686   0.13058767   0.31840831   0.03171552  0.032291576  0.054605273   0.11861237 
  154000   -1793198.9    15029.275    1624.1914    77.208503    89.153392    81.460908    1992.1789  0.094132684  0.095979673   0.13317863   0.32329099  0.032128489   0.03321735  0.055615646   0.12096149 
  155000   -1793147.9    15118.317    1946.1348    77.208503    89.153392    81.460908    2003.9817  0.096473453  0.097066117   0.13472723    0.3282668  0.033205582  0.033167246   0.05491989   0.12129272 
  156000   -1793372.8    15049.379    996.54538    77.208503    89.153392    81.460908    1994.8438   0.09493626  0.096097223   0.13206416   0.32309765  0.032882447  0.033444478  0.055323471    0.1216504 
  157000   -1793271.8    15190.173    1430.4496    77.208503    89.153392    81.460908    2013.5065  0.095583112  0.095975021   0.13238851   0.32394664  0.032503778  0.032668671   0.05533092   0.12050337 
  158000   -1793290.9    15067.283    1625.0279    77.208503    89.153392    81.460908    1997.2171  0.094330763  0.096860539   0.13394338   0.32513468  0.031756927  0.034188885  0.054430222   0.12037603 
  159000   -1793278.1    15084.324    1111.1655    77.208503    89.153392    81.460908    1999.4758  0.096043407  0.096331064    0.1311711   0.32354557  0.032322168  0.032932546  0.054743696   0.11999841 
  160000   -1793309.9    15063.407    1229.0759    77.208503    89.153392    81.460908    1996.7032  0.095557526  0.096735447   0.13393393    0.3262269  0.031681425   0.03289124   0.05434131   0.11891397 
  161000   -1793272.6    15066.233    1388.1933    77.208503    89.153392    81.460908    1997.0778  0.097375153  0.096221874   0.13339629   0.32699332  0.032516361  0.032111482  0.053370394   0.11799824 
  162000   -1793169.8    15048.315    1553.4555    77.208503    89.153392    81.460908    1994.7027  0.099032001  0.097587587   0.13513357   0.33175316  0.032763126  0.032365404  0.053493596   0.11862213 
  163000   -1793275.1     15059.87     1058.476    77.208503    89.153392    81.460908    1996.2345  0.098715303  0.097511099    0.1339636      0.33019  0.033627042  0.032714432  0.053212099   0.11955357 
  164000   -1793258.8    15061.751    1516.1367    77.208503    89.153392    81.460908    1996.4837   0.09978401  0.098143151   0.13321328   0.33114044  0.033472433   0.03229917  0.052010516   0.11778212 
  165000   -1793256.8    15079.949    1688.6701    77.208503    89.153392    81.460908     1998.896  0.097399632  0.099737557   0.13437422   0.33151141  0.031988273  0.032834365  0.053461317   0.11828396 
  166000   -1793359.8    15102.112    1244.1884    77.208503    89.153392    81.460908    2001.8337  0.097512116  0.097671651   0.13395736   0.32914112  0.030943397  0.032773592  0.053132324   0.11684931 
  167000   -1793236.7    15135.247    2224.2296    77.208503    89.153392    81.460908    2006.2259  0.099916533  0.099018079   0.13469797   0.33363258  0.032822383  0.032498802  0.053634692   0.11895588 
  168000   -1793237.5    15126.308    2007.8991    77.208503    89.153392    81.460908     2005.041   0.09958823  0.097683837   0.13485758   0.33212965  0.031935195  0.032353149  0.053895911   0.11818425 
  169000   -1793216.2    15153.953      1470.71    77.208503    89.153392    81.460908    2008.7054  0.099605693  0.099044662   0.13693898   0.33558934  0.032982722  0.032531985  0.054521736   0.12003644 
  170000   -1793271.1    15107.676    1502.3126    77.208503    89.153392    81.460908    2002.5712  0.099774363   0.10087342   0.13983237   0.34048015  0.031683357  0.033767008  0.055630508   0.12108087 
  171000   -1793239.1    15115.318    1723.7116    77.208503    89.153392    81.460908    2003.5842   0.10077302   0.10086749   0.13899559    0.3406361  0.032710288  0.032738308  0.053917143   0.11936574 
  172000   -1793287.5    15052.486    1669.2331    77.208503    89.153392    81.460908    1995.2557  0.099261322   0.10230796   0.14020834   0.34177762  0.032501244  0.034027239  0.054931703   0.12146019 
  173000   -1793186.9     15146.08    2578.9479    77.208503    89.153392    81.460908    2007.6618   0.10133759   0.10087528   0.13863829   0.34085116  0.032130544  0.031853625  0.054567667   0.11855184 
  174000   -1793263.4     15116.09    1573.4625    77.208503    89.153392    81.460908    2003.6866  0.099559476   0.10170393   0.13766645   0.33892985  0.030938067   0.03274263  0.053978088   0.11765878 
  175000   -1793227.2    15135.836    1701.5447    77.208503    89.153392    81.460908    2006.3039   0.10028332    0.1017055   0.13983721   0.34182603  0.031034277  0.032342213  0.055099327   0.11847582 
  176000   -1793305.2    15034.145    1065.9987    77.208503    89.153392    81.460908    1992.8245   0.10148957    0.1010764   0.13958438   0.34215034  0.031625509  0.032592481   0.05515589   0.11937388 
  177000   -1793234.4    15195.682    1532.4004    77.208503    89.153392    81.460908    2014.2367   0.10130621   0.10117405   0.13997373   0.34245399  0.031098937  0.031468966   0.05512775   0.11769565 
  178000   -1793235.3    15070.498    1605.4393    77.208503    89.153392    81.460908    1997.6431   0.10275936   0.10180104   0.14090493   0.34546534  0.032216296  0.033185654  0.055315649    0.1207176 
  179000   -1793251.7    15095.177      1790.04    77.208503    89.153392    81.460908    2000.9144   0.10461561     0.102071   0.13984216   0.34652876  0.033280292  0.032822276    0.0550961   0.12119867 
  180000   -1793136.1    15086.913    1611.5979    77.208503    89.153392    81.460908    1999.8191   0.10335075   0.10126108   0.14141467    0.3460265  0.031526115  0.032434275   0.05765668   0.12161707 
  181000   -1793288.3    14938.472    954.09042    77.208503    89.153392    81.460908    1980.1427   0.10426727   0.10349782   0.14222887   0.34999397  0.031663011  0.033786669   0.05555439   0.12100407 
  182000   -1793204.3    15033.285    1699.9447    77.208503    89.153392    81.460908    1992.7104   0.10405554   0.10163233   0.14221085   0.34789872  0.031490897   0.03159413  0.055607428   0.11869245 
  183000   -1793198.9    15042.786    1695.0233    77.208503    89.153392    81.460908    1993.9698   0.10419571   0.10316786   0.14172056   0.34908412  0.031721169   0.03287392  0.056259258   0.12085435 
  184000   -1793271.6    15150.108    2095.2593    77.208503    89.153392    81.460908    2008.1957   0.10488513   0.10348453    0.1406346   0.34900425  0.031590677  0.033353001  0.056282596   0.12122627 
  185000   -1793183.2    15067.534    1508.9135    77.208503    89.153392    81.460908    1997.2503   0.10658983   0.10431852   0.14285672   0.35376507  0.031889775  0.032650478  0.058136523   0.12267678 
  186000   -1793204.8    15162.485    1995.4047    77.208503    89.153392    81.460908    2009.8363   0.10821235    0.1050422   0.14034372   0.35359827  0.032008689  0.033572888  0.055590135   0.12117171 
  187000   -1793198.3    15133.698    1627.3884    77.208503    89.153392    81.460908    2006.0206    0.1076143   0.10481881   0.14274353   0.35517665   0.03229623  0.033324695  0.057172616   0.12279354 
  188000   -1793188.5    15080.536    1598.6369    77.208503    89.153392    81.460908    1998.9737   0.10752423   0.10487246   0.14142242   0.35381911  0.032262288  0.033569346  0.057733295   0.12356493 
  189000   -1793309.8    15069.618    585.70571    77.208503    89.153392    81.460908    1997.5265   0.10699427     0.104376   0.14138617   0.35275645  0.031784716  0.032537057  0.056472962   0.12079474 
  190000   -1793299.8    15066.453    1031.5212    77.208503    89.153392    81.460908     1997.107   0.10779586   0.10619391   0.14379411   0.35778388  0.032625462   0.03364817  0.057726352   0.12399998 
  191000   -1793235.9    15045.035    1081.1391    77.208503    89.153392    81.460908    1994.2679    0.1073705   0.10395827    0.1436122   0.35494097  0.031279783  0.032240836  0.057416642   0.12093726 
  192000   -1793321.6    15107.548    1064.5656    77.208503    89.153392    81.460908    2002.5542   0.10694592   0.10530169   0.14370508   0.35595268  0.031778793  0.032832058  0.057696269   0.12230712 
  193000   -1793300.5    15076.978    1165.0438    77.208503    89.153392    81.460908    1998.5021   0.10748949   0.10512878   0.14244121   0.35505948  0.031127719   0.03243579  0.054716755   0.11828026 
  194000   -1793260.3    15129.487     1677.115    77.208503    89.153392    81.460908    2005.4623   0.10728883   0.10570134    0.1442083   0.35719847   0.03124141  0.032332951  0.057736989   0.12131135 
  195000   -1793244.3     15082.85    1407.9707    77.208503    89.153392    81.460908    1999.2805   0.10706906   0.10551286   0.14461506   0.35719698  0.031533525  0.032285734  0.059456646    0.1232759 
  196000   -1793320.3    14999.714    900.95428    77.208503    89.153392    81.460908    1988.2605   0.10786842   0.10562389   0.14315677   0.35664907   0.03099808  0.032897312  0.057184856   0.12108025 
  197000   -1793283.8    15018.452    1135.2951    77.208503    89.153392    81.460908    1990.7443   0.10946353   0.10502625   0.14459716   0.35908694  0.032088171  0.032485354  0.057739527   0.12231305 
  198000   -1793251.7    15120.309    1707.6849    77.208503    89.153392    81.460908    2004.2457   0.10854936   0.10400451     0.145151   0.35770487  0.032110942  0.031604315  0.056038077   0.11975333 
  199000   -1793328.6    15146.017    1523.8887    77.208503    89.153392    81.460908    2007.6535   0.10965039   0.10699021   0.14716516   0.36380576  0.031080968  0.032454461  0.057510863   0.12104629 
  200000   -1793283.2    15099.032    1313.6892    77.208503    89.153392    81.460908    2001.4254   0.10922014   0.10633934   0.14646106   0.36202054  0.032103993  0.032399235  0.056995048   0.12149828 
  201000   -1793245.4    15112.425    1968.7615    77.208503    89.153392    81.460908    2003.2008   0.10924669   0.10591135   0.14731935   0.36247739  0.031716969  0.031259184  0.057830732   0.12080688 
  202000   -1793202.3    15064.885    1451.6641    77.208503    89.153392    81.460908    1996.8992   0.10955745   0.10802137   0.14823431   0.36581313  0.031869112  0.033600756  0.057258102   0.12272797 
  203000   -1793284.5    15116.839    1319.3825    77.208503    89.153392    81.460908    2003.7858   0.11074294   0.10726221   0.14817238   0.36617752   0.03198204  0.032601643  0.058517864   0.12310155 
  204000   -1793134.7    15086.625    1812.9172    77.208503    89.153392    81.460908    1999.7809   0.11034093   0.10735631   0.14918941   0.36688665   0.03170717   0.03359639   0.05743842   0.12274198 
  205000   -1793248.6    15034.116    1490.1986    77.208503    89.153392    81.460908    1992.8207    0.1113334   0.10692403    0.1464356   0.36469304  0.032653216  0.032477657  0.055395158   0.12052603 
  206000     -1793330    15098.945    1464.4744    77.208503    89.153392    81.460908     2001.414   0.11048903   0.10905768   0.15014121   0.36968791  0.031585984  0.033153574  0.055831804   0.12057136 
  207000     -1793239    15078.153    1676.3105    77.208503    89.153392    81.460908    1998.6579   0.11021709   0.10890915   0.14722656   0.36635281  0.032252939  0.032528278  0.055135185    0.1199164 
  208000     -1793177    15095.576    1780.0381    77.208503    89.153392    81.460908    2000.9673   0.11122554   0.10673037   0.14679121   0.36474712  0.031648606  0.032111321  0.055311388   0.11907132 
  209000   -1793244.3    15099.891    950.12643    77.208503    89.153392    81.460908    2001.5393   0.11045519   0.10998777   0.14654365   0.36698662    0.0316047  0.033584864  0.056954087   0.12214365 
  210000   -1793104.2    15149.326     2321.346    77.208503    89.153392    81.460908    2008.0921   0.11167547   0.10577968   0.15074924    0.3682044  0.032339945  0.031631829  0.058107421    0.1220792 
  211000   -1793293.7    15120.002    1135.1949    77.208503    89.153392    81.460908    2004.2051   0.11268686   0.10894993   0.15102584   0.37266263  0.032086011  0.032875475  0.057177613    0.1221391 
  212000   -1793254.3    15072.498    1499.3166    77.208503    89.153392    81.460908    1997.9082   0.11202647   0.10822491   0.14889764   0.36914902  0.031951534  0.031953596  0.056954239   0.12085937 
  213000   -1793226.9    15099.349    1603.2106    77.208503    89.153392    81.460908    2001.4675   0.11190881   0.10888634   0.15079156   0.37158671  0.031485406  0.032617362   0.05509556   0.11919833 
  214000   -1793299.4    15078.156    1317.0031    77.208503    89.153392    81.460908    1998.6582   0.11254096   0.10945343    0.1509093   0.37290368  0.031830924  0.032978677  0.056972786   0.12178239 
  215000   -1793193.2    15062.901    1735.5108    77.208503    89.153392    81.460908    1996.6362   0.11354555   0.10945442    0.1505759   0.37357587  0.031942487   0.03269427  0.055123774   0.11976053 
  216000   -1793272.4    15087.609    1277.3473    77.208503    89.153392    81.460908    1999.9113   0.11407199   0.11129254   0.15212715   0.37749168  0.032358664  0.032982596  0.055947624   0.12128888 
  217000   -1793304.4    15166.564    1727.5037    77.208503    89.153392    81.460908     2010.377   0.11260504   0.10994931   0.15162574   0.37418009  0.031597992  0.032023574  0.054942736    0.1185643 
  218000   -1793244.9    15070.071    1331.1492    77.208503    89.153392    81.460908    1997.5866   0.11398945   0.11172344   0.15077127   0.37648417  0.032426282  0.033178029  0.054432262   0.12003657 
  219000   -1793275.7    15038.427    1117.1391    77.208503    89.153392    81.460908    1993.3921   0.11486775   0.11091248   0.14988791   0.37566814  0.033068766  0.032836557  0.055397126   0.12130245 
  220000     -1793245    15077.014    2019.2249    77.208503    89.153392    81.460908    1998.5069    0.1156706   0.11163714    0.1517952   0.37910294   0.03280421   0.03233285  0.056596905   0.12173397 
  221000   -1793316.1    15128.776    1346.7907    77.208503    89.153392    81.460908    2005.3681   0.11398883   0.11131436   0.15178055   0.37708374  0.031367246  0.032311666  0.055757568   0.11943648 
  222000   -1793200.2    15037.581    1987.7965    77.208503    89.153392    81.460908      1993.28   0.11470371   0.11197456   0.15173566   0.37841393  0.031641571  0.032614817  0.056710091   0.12096648 
  223000   -1793311.3    15114.855    1020.7295    77.208503    89.153392    81.460908    2003.5228   0.11466065   0.11180678   0.15324113   0.37970857  0.032411582  0.032434782  0.056305387   0.12115175 
  224000     -1793236     15161.35     2381.902    77.208503    89.153392    81.460908    2009.6859   0.11537612   0.11210154   0.15533346   0.38281112  0.032158495   0.03195536  0.058589627   0.12270348 
  225000   -1793357.8    15198.163    1587.7861    77.208503    89.153392    81.460908    2014.5656   0.11448353   0.11260777   0.15496865   0.38205995  0.030955368   0.03356189  0.058851568   0.12336883 
  226000   -1793242.8    15100.415    1647.9545    77.208503    89.153392    81.460908    2001.6088   0.11601225   0.11337978   0.15547548   0.38486751  0.031778524  0.032174387  0.057520428   0.12147334 
  227000   -1793207.1     15113.92    1743.3035    77.208503    89.153392    81.460908    2003.3988   0.11560724   0.11375071   0.15711324   0.38647119  0.031572287  0.032706432  0.059931934   0.12421065 
  228000   -1793203.8    15094.701    2326.7831    77.208503    89.153392    81.460908    2000.8513   0.11669193     0.113855    0.1564229   0.38696982  0.031764701  0.032648679  0.057843369   0.12225675 
  229000     -1793233    15111.823    1117.1967    77.208503    89.153392    81.460908     2003.121   0.11666987   0.11410416   0.15984346   0.39061749  0.032371794  0.033056498  0.059776759   0.12520505 
  230000   -1793322.1    15002.643    1745.2197    77.208503    89.153392    81.460908    1988.6487   0.11634759   0.11464184   0.15751737    0.3885068  0.031819978  0.032775331  0.059713618   0.12430893 
  231000   -1793286.2    15143.072    1952.1218    77.208503    89.153392    81.460908     2007.263   0.11699863   0.11422073   0.15895948   0.39017885  0.032070249  0.031875272  0.060405124   0.12435065 
  232000   -1793299.8    15121.477    1190.4902    77.208503    89.153392    81.460908    2004.4006   0.11739163   0.11421054   0.15521108   0.38681325  0.032467378  0.032628497  0.057937314   0.12303319 
  233000   -1793335.2    15100.039    1514.1179    77.208503    89.153392    81.460908     2001.559   0.11586487   0.11518396   0.15794228   0.38899111  0.032662714  0.032587889  0.061002865   0.12625347 
  234000   -1793198.7     15052.03    2306.4171    77.208503    89.153392    81.460908    1995.1952   0.11715314   0.11306546   0.15765222   0.38787083  0.032761977  0.032547642  0.059068698   0.12437832 
  235000   -1793254.7    15030.054    722.56645    77.208503    89.153392    81.460908    1992.2822   0.11655681   0.11541694   0.15640069   0.38837444  0.031857304  0.032595549  0.061577289   0.12603014 
  236000   -1793247.9    15062.045    1206.4766    77.208503    89.153392    81.460908    1996.5227   0.11723235   0.11532206   0.15664308   0.38919749  0.032120283  0.032432582  0.061291243   0.12584411 
  237000   -1793280.8    15088.768    803.37219    77.208503    89.153392    81.460908    2000.0649   0.11625834   0.11588438   0.15880348   0.39094619  0.031571407  0.032348197  0.061617781   0.12553739 
  238000     -1793234    15088.935    1143.6135    77.208503    89.153392    81.460908     2000.087   0.11857445   0.11588205   0.15928551   0.39374201  0.032953082  0.032548927  0.061071035   0.12657304 
  239000   -1793297.5     15102.22    1398.6191    77.208503    89.153392    81.460908    2001.8481   0.11595093    0.1153113   0.15996176   0.39122399  0.031195496  0.031955461  0.063100655   0.12625161 
  240000   -1793293.1    15069.529    1714.5481    77.208503    89.153392    81.460908    1997.5147   0.11751438   0.11528566    0.1601483   0.39294835  0.031752416  0.031904755  0.059881221   0.12353839 
  241000   -1793187.3    15004.242    2007.1864    77.208503    89.153392    81.460908    1988.8608   0.11820705   0.11625328   0.15813022   0.39259055  0.032772908  0.031872031  0.060392874   0.12503781 
  242000   -1793325.2    15119.953    1109.4936    77.208503    89.153392    81.460908    2004.1985   0.11861633   0.11737803   0.16132103   0.39731539  0.030961923  0.032339965  0.061319955   0.12462184 
  243000   -1793250.3    15128.854    1471.4201    77.208503    89.153392    81.460908    2005.3784   0.11900693   0.11829636   0.16092508   0.39822838  0.031534226  0.032400014  0.060197559    0.1241318 
  244000   -1793321.8    15091.399    1322.9064    77.208503    89.153392    81.460908    2000.4137   0.11943861      0.11814   0.16285907   0.40043768  0.032167943  0.033040499  0.062449121   0.12765756 
  245000   -1793305.9    15096.049    992.72254    77.208503    89.153392    81.460908      2001.03   0.11848421   0.11759748   0.16166937   0.39775106  0.031815761  0.031581329  0.060992245   0.12438934 
  246000   -1793313.4    15037.244    867.92618    77.208503    89.153392    81.460908    1993.2352   0.11856998   0.11863419   0.16426869   0.40147286  0.031134628  0.032395913  0.063549545   0.12708009 
  247000     -1793260     15139.45    1899.3063    77.208503    89.153392    81.460908     2006.783   0.11895798    0.1174364   0.16180028   0.39819466  0.031258536  0.032329302  0.060999774   0.12458761 
  248000   -1793284.8    15103.108    1998.4117    77.208503    89.153392    81.460908    2001.9658   0.11830037   0.11772475   0.16377825   0.39980337  0.032089224  0.032351127  0.061161305   0.12560166 
  249000   -1793204.5    15183.314    2291.6145    77.208503    89.153392    81.460908    2012.5973   0.11940889   0.11988785    0.1607388   0.40003554    0.0314744  0.033095392  0.060836946   0.12540674 
  250000   -1793183.6    15067.572     2112.974    77.208503    89.153392    81.460908    1997.2553    0.1193552   0.11730818   0.16408306   0.40074644  0.031868167  0.031870851   0.06161863   0.12535765 
  251000   -1793266.4    15095.757    1824.2278    77.208503    89.153392    81.460908    2000.9913   0.11924784   0.11951891   0.16173415    0.4005009   0.03157282   0.03232615  0.059472917   0.12337189 
  252000   -1793237.3    15177.876    2295.8497    77.208503    89.153392    81.460908    2011.8764    0.1211631   0.11798484    0.1622142   0.40136214  0.032473498  0.032488059  0.060071178   0.12503274 
  253000     -1793292    15107.435    1315.3748    77.208503    89.153392    81.460908    2002.5393    0.1209593    0.1174274   0.16629989   0.40468658  0.032753993  0.031243759  0.062368086   0.12636584 
  254000   -1793173.3    15082.659    1140.4319    77.208503    89.153392    81.460908    1999.2552   0.12040572   0.11965863   0.16460074    0.4046651  0.032525898   0.03265336  0.061837914   0.12701717 
  255000   -1793350.5    15034.089    984.44798    77.208503    89.153392    81.460908    1992.8171   0.12102802   0.11872755    0.1676272   0.40738277  0.031572102  0.032398792  0.063230674   0.12720157 
  256000     -1793259     15105.06    1629.6607    77.208503    89.153392    81.460908    2002.2244   0.12043436   0.11955145   0.16609222   0.40607803  0.031682069  0.033089813  0.060219539   0.12499142 
  257000   -1793286.7    15078.424    1675.3225    77.208503    89.153392    81.460908    1998.6938   0.12102874    0.1196997   0.16580368   0.40653213  0.031885698  0.032792835  0.062319439   0.12699797 
  258000   -1793226.9     15074.85    2024.3548    77.208503    89.153392    81.460908      1998.22   0.12150869   0.11922731    0.1658806   0.40661661  0.032084883  0.032800705  0.060215804   0.12510139 
  259000   -1793220.8    15042.867    2221.7109    77.208503    89.153392    81.460908    1993.9805   0.12271652   0.11782199   0.16639594   0.40693445  0.031927335  0.032264204  0.061849414   0.12604095 
  260000   -1793282.4    15096.903    1200.6071    77.208503    89.153392    81.460908    2001.1432     0.122169   0.11874146   0.16645265   0.40736311  0.030998868  0.031858702  0.060827682   0.12368525 
  261000   -1793240.5    15135.099    1010.3627    77.208503    89.153392    81.460908    2006.2063    0.1229886   0.12159024   0.16645092   0.41102976  0.032492725  0.032673678  0.059873127   0.12503953 
  262000   -1793268.6    15058.205    1759.0097    77.208503    89.153392    81.460908    1996.0137   0.12438299   0.11928004   0.16599521   0.40965824  0.032247775  0.031157873  0.061204973   0.12461062 
  263000   -1793201.7     15171.28    2468.6749    77.208503    89.153392    81.460908    2011.0022   0.12392118   0.11987606   0.16838882   0.41218606  0.032237484  0.031044913  0.061555024   0.12483742 
  264000   -1793218.5    15049.712    1274.4367    77.208503    89.153392    81.460908    1994.8879    0.1224805   0.12346304   0.16976045   0.41570399  0.031877107  0.033558944  0.062005915   0.12744197 
  265000   -1793199.4    15048.296    1966.0418    77.208503    89.153392    81.460908    1994.7002   0.12368876   0.12099759   0.16793864     0.412625  0.032085291   0.03252893   0.06174384   0.12635806 
  266000   -1793290.5    15059.715    1364.4505    77.208503    89.153392    81.460908    1996.2139    0.1230029   0.12162746   0.16992356   0.41455392  0.031913171  0.032295739  0.061704562   0.12591347 
  267000   -1793228.6    15063.368    1876.3234    77.208503    89.153392    81.460908     1996.698   0.12543512   0.12419616   0.16832473   0.41795602  0.032223779  0.033497224  0.061282196    0.1270032 
  268000   -1793244.4    15109.325    1752.9827    77.208503    89.153392    81.460908    2002.7899   0.12380284   0.12328078   0.16825934   0.41534296  0.032410138   0.03220889  0.059466606   0.12408563 
  269000   -1793261.4    15170.496    1620.7077    77.208503    89.153392    81.460908    2010.8983   0.12611875   0.12262715   0.16790269   0.41664859  0.031981248  0.032169256  0.058554945   0.12270545 
  270000   -1793283.4    14987.022    1160.3127    77.208503    89.153392    81.460908    1986.5781   0.12524403   0.12469689   0.16965492   0.41959584  0.032036797  0.032996668  0.058596075   0.12362954 
  271000   -1793214.7    15132.392    2324.5722    77.208503    89.153392    81.460908    2005.8474   0.12707036   0.12535916    0.1694991   0.42192863  0.032053238  0.032949224    0.0589821   0.12398456 
  272000   -1793234.6    15062.547    2063.7698    77.208503    89.153392    81.460908    1996.5893   0.12692002   0.12475594   0.17221842   0.42389437  0.032439782  0.032436171  0.058595089   0.12347104 
  273000   -1793208.7    15093.975     1544.453    77.208503    89.153392    81.460908    2000.7551   0.12649131   0.12409617   0.17265479   0.42324227  0.031980908  0.032732828  0.061445427   0.12615916 
  274000     -1793167    15166.103    2261.2088    77.208503    89.153392    81.460908    2010.3159   0.12704335   0.12431879   0.17145673   0.42281887  0.031442156  0.032143727  0.060119558   0.12370544 
  275000     -1793327    15047.319    1441.5869    77.208503    89.153392    81.460908    1994.5708   0.12750905   0.12468215   0.17337491   0.42556611  0.032068075  0.032301779  0.060915007   0.12528486 
  276000   -1793309.9    15161.935    1490.3258    77.208503    89.153392    81.460908    2009.7635   0.12631793    0.1231097   0.16979115   0.41921878  0.031166219  0.031751626  0.057772456    0.1206903 
  277000   -1793248.8     15087.02    2102.4274    77.208503    89.153392    81.460908    1999.8332   0.12781101   0.12564482   0.17294488    0.4264007  0.032054533  0.032566044  0.059736875   0.12435745 
  278000   -1793224.8      15046.1     1495.211    77.208503    89.153392    81.460908    1994.4091   0.12807321   0.12640899   0.17156144   0.42604363  0.031664772  0.031403864  0.059291425   0.12236006 
  279000   -1793257.3    15049.599     1223.132    77.208503    89.153392    81.460908     1994.873   0.12771615   0.12664459   0.16980815   0.42416888  0.032206727  0.032073888  0.059945538   0.12422615 
  280000     -1793278    15029.165    841.10351    77.208503    89.153392    81.460908    1992.1644   0.12873533   0.12660558   0.17526796   0.43060887  0.031856116  0.031928832  0.060959696   0.12474464 
  281000   -1793167.9    15065.623    1643.6687    77.208503    89.153392    81.460908    1996.9969   0.12855071   0.12618969   0.17380334   0.42854375  0.032251674  0.031755241  0.059686929   0.12369384 
  282000   -1793322.9    15021.193    1259.4097    77.208503    89.153392    81.460908    1991.1076   0.12879839   0.12716838   0.17500424   0.43097102  0.031875801   0.03304386  0.061591249   0.12651091 
  283000     -1793275    15063.101      1504.72    77.208503    89.153392    81.460908    1996.6627   0.12953626   0.12771464   0.17501578   0.43226668  0.032095471  0.031582032  0.060274405   0.12395191 
  284000   -1793206.8    15098.643    2160.7877    77.208503    89.153392    81.460908    2001.3739    0.1299135   0.12864562   0.17463018    0.4331893  0.032480175  0.032614325  0.060622849   0.12571735 
  285000   -1793232.1    15123.666    1678.7915    77.208503    89.153392    81.460908    2004.6907    0.1314271   0.12784972   0.17557464   0.43485145  0.032063483  0.031704952  0.059026613   0.12279505 
  286000   -1793262.2    15144.029    2123.8789    77.208503    89.153392    81.460908      2007.39   0.13240409   0.12895898   0.17745861   0.43882168  0.032389737  0.032294547  0.060171413    0.1248557 
  287000   -1793223.8    15102.968    1686.6562    77.208503    89.153392    81.460908    2001.9472   0.13187941   0.12964759   0.17608873   0.43761573  0.031266819  0.032881097   0.05938288    0.1235308 
  288000   -1793297.4    15122.741    1431.5727    77.208503    89.153392    81.460908    2004.5681   0.13264351   0.13021162   0.17626032   0.43911545  0.032047367  0.033030655  0.059016575    0.1240946 
  289000   -1793204.1    15059.934    1501.5144    77.208503    89.153392    81.460908    1996.2428   0.13155459    0.1299987   0.17688029   0.43843357  0.032650234  0.032830906  0.058731622   0.12421276 
  290000   -1793084.7    15105.128    2300.1901    77.208503    89.153392    81.460908    2002.2335   0.13125213   0.12991383   0.17761049   0.43877644  0.031765168  0.032700455  0.060023168   0.12448879 
  291000   -1793258.8    15135.656    1079.5108    77.208503    89.153392    81.460908      2006.28   0.13143001   0.13056647   0.17762978   0.43962627  0.031401682  0.033851143  0.060647155   0.12589998 
  292000   -1793218.4    15174.939    2201.2122    77.208503    89.153392    81.460908    2011.4872   0.13318458   0.13132169   0.17924468   0.44375095  0.031950568  0.033225046  0.061808144   0.12698376 
  293000   -1793229.7    14970.004    1723.8647    77.208503    89.153392    81.460908    1984.3224      0.13447   0.13140151   0.17930318    0.4451747  0.032719232  0.032012532  0.061878003   0.12660977 
  294000   -1793224.4    15010.717    1873.3969    77.208503    89.153392    81.460908     1989.719   0.13218161   0.13037083   0.17874845   0.44130089  0.031397658  0.031951108  0.059921895   0.12327066 
  295000   -1793164.2    15183.827    3107.6075    77.208503    89.153392    81.460908    2012.6653   0.13391722   0.13243861   0.17989754   0.44625337  0.032661591  0.032655026  0.062465099   0.12778172 
  296000   -1793254.9    15143.758    1760.9029    77.208503    89.153392    81.460908    2007.3541   0.13249858   0.13203629   0.18023209   0.44476695  0.031925028  0.032568321  0.060536294   0.12502964 
  297000     -1793213    15159.531    1899.2233    77.208503    89.153392    81.460908    2009.4448   0.13417924   0.13055373   0.17964672   0.44437969  0.031998565  0.032094985  0.061613072   0.12570662 
  298000   -1793289.4    15063.389    1832.2842    77.208503    89.153392    81.460908    1996.7009   0.13301011   0.13265935   0.18031136   0.44598082   0.03257415  0.033515541  0.061333274   0.12742296 
  299000   -1793246.6    15097.487      1331.42    77.208503    89.153392    81.460908    2001.2207   0.13252295   0.13185924   0.17942743   0.44380962   0.03196586  0.032618946  0.060649151   0.12523396 
  300000   -1793197.6    14990.302    1478.2666    77.208503    89.153392    81.460908    1987.0129   0.13267181   0.13253149   0.17831415   0.44351745    0.0317628  0.033022299  0.061494997    0.1262801 
  301000   -1793227.2    15093.476    1582.1389    77.208503    89.153392    81.460908    2000.6889   0.13362548   0.13438686   0.17992535   0.44793769  0.032507634  0.032595368  0.061858201    0.1269612 
  302000   -1793254.6    15101.897    2225.7525    77.208503    89.153392    81.460908    2001.8052   0.13410169   0.13473473   0.18146654   0.45030296  0.031870329  0.032645559  0.060639752   0.12515564 
  303000   -1793189.2    15038.412    1064.4305    77.208503    89.153392    81.460908    1993.3901   0.13295732   0.13464452   0.18211051   0.44971235  0.031831231   0.03260607  0.062193985   0.12663129 
  304000   -1793185.7    15071.243    2335.6456    77.208503    89.153392    81.460908     1997.742   0.13271533   0.13445896   0.18159331    0.4487676  0.031362918  0.032645512  0.062622907   0.12663134 
  305000   -1793279.4    15095.985    883.98362    77.208503    89.153392    81.460908    2001.0215   0.13345715   0.13610302   0.18109833   0.45065851  0.030951897   0.03299921  0.061629856   0.12558096 
  306000   -1793259.4    15083.246    1842.8906    77.208503    89.153392    81.460908     1999.333    0.1346822   0.13461403   0.18163265   0.45092887  0.031754157  0.032785014  0.062801102   0.12734027 
  307000   -1793316.5    15170.146    1420.9056    77.208503    89.153392    81.460908    2010.8519   0.13583221   0.13414937   0.18370875   0.45369032  0.032580926  0.033063419  0.061837674   0.12748202 
  308000   -1793240.4    15130.156    1248.2187    77.208503    89.153392    81.460908     2005.551   0.13723893   0.13435371   0.18242437     0.454017  0.033860774  0.031594965  0.061502026   0.12695776 
  309000   -1793289.9    15132.439    1454.7986    77.208503    89.153392    81.460908    2005.8536   0.13455457   0.13631458   0.18485556   0.45572471  0.031515278  0.032911652  0.063399041   0.12782597 
  310000   -1793285.3    15033.192    1176.7343    77.208503    89.153392    81.460908    1992.6982   0.13560361   0.13376664   0.18596807   0.45533832  0.031214872  0.032149111  0.063227181   0.12659116 
  311000   -1793282.6    15034.728    1656.0521    77.208503    89.153392    81.460908    1992.9018   0.13664456   0.13554123   0.18601497   0.45820077  0.032687791  0.033232323  0.065274713   0.13119483 
  312000   -1793174.8    15022.586    1171.5685    77.208503    89.153392    81.460908    1991.2922   0.13720107   0.13542013    0.1836067    0.4562279   0.03392447  0.032865144  0.062534404   0.12932402 
  313000   -1793151.9    15048.416    2401.8978    77.208503    89.153392    81.460908    1994.7162    0.1350151   0.13504618   0.18455472     0.454616  0.032136718  0.032663085  0.063993511   0.12879331 
  314000   -1793232.8    15094.594    1504.6901    77.208503    89.153392    81.460908    2000.8372    0.1348312   0.13604305   0.18391953   0.45479378  0.032200837  0.033220249   0.06120841    0.1266295 
  315000   -1793225.1    15089.926    2124.8393    77.208503    89.153392    81.460908    2000.2184   0.13380415    0.1362079   0.18377279   0.45378483  0.031739832  0.032372969   0.06227956   0.12639236 
  316000   -1793099.4    15120.817    2333.2017    77.208503    89.153392    81.460908    2004.3131   0.13606932   0.13787715   0.18533999   0.45928645  0.033322373  0.033531897  0.063720575   0.13057485 
  317000   -1793274.7    15094.948    1247.4583    77.208503    89.153392    81.460908    2000.8841   0.13508567   0.13835912   0.18655052   0.45999531  0.031109816  0.033170883  0.064381261   0.12866196 
  318000   -1793200.3    15100.911    1602.1979    77.208503    89.153392    81.460908    2001.6745   0.13736126   0.13890906   0.18857545   0.46484577  0.033286817  0.033335054  0.066347586   0.13296946 
  319000   -1793350.7    15104.002    927.17095    77.208503    89.153392    81.460908    2002.0842   0.13601171   0.13760288   0.18811361    0.4617282  0.031776323  0.032318959  0.065936353   0.13003163 
  320000   -1793316.4     15100.88    686.82332    77.208503    89.153392    81.460908    2001.6704   0.13827888   0.13765423   0.18852547   0.46445858  0.032276462  0.032860841   0.06581911   0.13095641 
  321000     -1793266    15091.017    1679.1635    77.208503    89.153392    81.460908     2000.363   0.13818884   0.13824431   0.18940572   0.46583887  0.033214161  0.033266701    0.0659005   0.13238136 
  322000   -1793237.2    15118.033    1828.9297    77.208503    89.153392    81.460908    2003.9441   0.13523311   0.13739799   0.18659256   0.45922366  0.031584164   0.03242509  0.064166993   0.12817625 
  323000   -1793325.1    15065.422    1171.4085    77.208503    89.153392    81.460908    1996.9704   0.13648617   0.13827963   0.18941717   0.46418297  0.031519864   0.03348616  0.067360168   0.13236619 
  324000   -1793279.7     15057.49    1013.7991    77.208503    89.153392    81.460908    1995.9189   0.13774064   0.14063702   0.18810862   0.46648628  0.032020017  0.034584925  0.066864624   0.13346957 
  325000   -1793302.3    15088.962    1722.0922    77.208503    89.153392    81.460908    2000.0907   0.13843289    0.1388731   0.18828526   0.46559124  0.032509166  0.032657287  0.068068976   0.13323543 
  326000     -1793175    15063.513    1910.9307    77.208503    89.153392    81.460908    1996.7173   0.13856933   0.13814616   0.18812359   0.46483907  0.031954225  0.032531173  0.066422336   0.13090773 
  327000   -1793302.9    15092.443    1445.6395    77.208503    89.153392    81.460908    2000.5521   0.13720854   0.13985042   0.19115774    0.4682167  0.030954755   0.03323426  0.066918486    0.1311075 
  328000   -1793198.3    15111.566    1469.7051    77.208503    89.153392    81.460908    2003.0869   0.13852407   0.14071639   0.18899179   0.46823225  0.032226261  0.032466096  0.063923712   0.12861607 
  329000   -1793314.8    15095.971    801.03319    77.208503    89.153392    81.460908    2001.0197   0.13919119   0.14057674   0.19150748   0.47127541  0.032423543  0.032394906  0.066390173   0.13120862 
  330000   -1793328.6    15003.519     384.0803    77.208503    89.153392    81.460908     1988.765   0.14055493   0.14074789   0.19027085   0.47157367  0.031940357  0.033554698  0.064412346    0.1299074 
  331000   -1793312.7    15233.567    1355.5697    77.208503    89.153392    81.460908    2019.2585   0.13960684   0.14179161   0.19175623   0.47315469  0.031108228  0.033621761  0.067948747   0.13267874 
  332000   -1793316.3    15136.106    1561.3336    77.208503    89.153392    81.460908    2006.3398   0.14032608   0.14187469   0.19294187   0.47514264  0.031965565  0.033864848  0.066335593   0.13216601 
  333000   -1793295.6    15049.738    1379.8959    77.208503    89.153392    81.460908    1994.8914   0.13907994   0.14127815   0.19197795   0.47233603  0.031033998  0.033232171  0.065660435    0.1299266 
  334000   -1793355.7    15037.121    801.14891    77.208503    89.153392    81.460908    1993.2189   0.13874131   0.14228473   0.19170115   0.47272719  0.031432684  0.033180453  0.064065503   0.12867864 
  335000     -1793265    15039.875    1864.0833    77.208503    89.153392    81.460908    1993.5839   0.14044015   0.14354797   0.19134096   0.47532908   0.03142782  0.033651834  0.064410348      0.12949 
  336000   -1793246.2     15143.49    2281.9294    77.208503    89.153392    81.460908    2007.3185    0.1412635   0.14245703   0.19276288   0.47648341  0.032744499   0.03392092  0.066350338   0.13301576 
  337000   -1793375.3    15128.585     1373.961    77.208503    89.153392    81.460908    2005.3427   0.14134459   0.14167056    0.1927197   0.47573485  0.032182764  0.032320246  0.065133929   0.12963694 
  338000   -1793231.2    15174.007    2157.3125    77.208503    89.153392    81.460908    2011.3636   0.14168182   0.14316052   0.19502575   0.47986808  0.031767855  0.033237553  0.065596039   0.13060145 
  339000     -1793168     15134.17    1702.7835    77.208503    89.153392    81.460908    2006.0831   0.14229997   0.14423082   0.19549292   0.48202371  0.032494664  0.033119994  0.061450171   0.12706483 
  340000   -1793260.5    15132.457    1369.7367    77.208503    89.153392    81.460908    2005.8561   0.14176681      0.14276   0.19712879   0.48165561  0.032103606  0.032325584  0.063222464   0.12765165 
  341000   -1793320.3    15147.121    1851.8477    77.208503    89.153392    81.460908    2007.7998   0.14080165   0.14437945   0.19590496   0.48108606  0.031670735  0.033363717   0.06154357   0.12657802 
  342000   -1793209.7    15061.148    1152.3702    77.208503    89.153392    81.460908    1996.4038   0.14301656   0.14425328   0.20014747    0.4874173  0.033391625  0.031887657  0.064778087   0.13005737 
  343000   -1793303.2    15113.186    1217.9679    77.208503    89.153392    81.460908    2003.3016   0.14233485   0.14518063   0.19565152   0.48316699  0.031602054  0.032522613  0.061932486   0.12605715 
  344000   -1793260.5    15210.291    1343.4771    77.208503    89.153392    81.460908    2016.1732   0.14227338   0.14514133   0.19759726   0.48501197  0.032058977  0.033090472  0.063102197   0.12825165 
  345000   -1793292.5     15144.84    1717.8728    77.208503    89.153392    81.460908    2007.4974    0.1424375   0.14419681   0.19971925   0.48635356  0.031647708  0.032258222  0.065537481   0.12944341 
  346000   -1793269.4    15104.761     1373.807    77.208503    89.153392    81.460908    2002.1848   0.14473103   0.14491387   0.19817145   0.48781636  0.033185024  0.032987334  0.063136672   0.12930903 
  347000   -1793204.9    14982.674    1640.6583    77.208503    89.153392    81.460908    1986.0018   0.14413259   0.14493693   0.20330231   0.49237183  0.032549784  0.032542052  0.066006794   0.13109863 
  348000   -1793242.3    15103.428     1651.922    77.208503    89.153392    81.460908    2002.0082   0.14288367    0.1470398   0.20005875   0.48998221   0.03159865  0.032979585  0.063589111   0.12816735 
  349000   -1793298.5    15216.927    1321.1055    77.208503    89.153392    81.460908    2017.0529   0.14459209   0.14621666   0.19843227   0.48924102  0.032192787  0.032308833  0.063126934   0.12762855 
  350000   -1793310.1    15145.897    1464.3666    77.208503    89.153392    81.460908    2007.6376   0.14588441   0.14899249   0.19959857   0.49447547   0.03192239  0.034655259  0.063604759   0.13018241 
  351000   -1793236.2    15078.345     1437.899    77.208503    89.153392    81.460908    1998.6834   0.14429123   0.14559888   0.19957737   0.48946747  0.032617772  0.032027879  0.063125128   0.12777078 
  352000   -1793356.3    15047.999    989.03249    77.208503    89.153392    81.460908    1994.6608   0.14535464   0.14826104   0.19911809   0.49273378  0.032155265  0.032925961  0.063927986   0.12900921 
  353000   -1793235.6    15122.299     2131.451    77.208503    89.153392    81.460908    2004.5096   0.14550586   0.14760688   0.19996411   0.49307685  0.032060289   0.03201886  0.064255867   0.12833502 
  354000   -1793234.8    15054.388    1368.0201    77.208503    89.153392    81.460908    1995.5077   0.14602625   0.14751964   0.20009567   0.49364156  0.032726327  0.032749032  0.064205309   0.12968067 
  355000   -1793334.4    15026.921    1620.6524    77.208503    89.153392    81.460908    1991.8669   0.14745492   0.14716465   0.20235896   0.49697853   0.03200044  0.032713399  0.063624959    0.1283388 
  356000   -1793129.5    15047.976    2010.5518    77.208503    89.153392    81.460908    1994.6578   0.14702377   0.14947447   0.20166135    0.4981596  0.032434225  0.032780545  0.065152498   0.13036727 
  357000   -1793198.3    15134.891    1849.8658    77.208503    89.153392    81.460908    2006.1787   0.14605581   0.14867434   0.20122947   0.49595962  0.031280043  0.032977081  0.063625452   0.12788258 
  358000     -1793274    15134.152    1633.6256    77.208503    89.153392    81.460908    2006.0807   0.14725141   0.14755017   0.20257344   0.49737502  0.032062884  0.032258131  0.063428912   0.12774993 
  359000     -1793289    15145.577    1498.8688    77.208503    89.153392    81.460908    2007.5952   0.14839727   0.14782746   0.20395968   0.50018441  0.032881807  0.032343158  0.065198525   0.13042349 
  360000   -1793286.9    15073.031    1150.0479    77.208503    89.153392    81.460908    1997.9789   0.14704136   0.15048534   0.20476405   0.50229075  0.032228988  0.032941627  0.065097528   0.13026814 
  361000   -1793233.4    15108.266    1418.2589    77.208503    89.153392    81.460908    2002.6494   0.14732937   0.14954677   0.20432958   0.50120572  0.031910365  0.032638427  0.063261965   0.12781076 
  362000   -1793303.4    15116.379    1622.3112    77.208503    89.153392    81.460908    2003.7249   0.14732644   0.15024181   0.20568561   0.50325387  0.033260074  0.032953687  0.063648499   0.12986226 
  363000   -1793246.2    15223.158    2164.5522    77.208503    89.153392    81.460908    2017.8788   0.14768014   0.15118179   0.20483388   0.50369581  0.031798785  0.033154934  0.062568298   0.12752202 
  364000   -1793264.6     15028.55    2232.2106    77.208503    89.153392    81.460908    1992.0829   0.14934872   0.15092081    0.2064237   0.50669323   0.03192702  0.033121604  0.061784501   0.12683312 
  365000   -1793193.6    15040.526    1589.5821    77.208503    89.153392    81.460908    1993.6703   0.14978104   0.15367336   0.20562466   0.50907906  0.033343184  0.033808877  0.063075143    0.1302272 
  366000   -1793176.7     15054.19    2159.2581    77.208503    89.153392    81.460908    1995.4815   0.15017316   0.15231318   0.20674262   0.50922896  0.031326842  0.032518982  0.061285917   0.12513174 
  367000   -1793256.2    15028.222    2085.7661    77.208503    89.153392    81.460908    1992.0393   0.14799273   0.15379878   0.20718753   0.50897904  0.032315922  0.032975031  0.064404385   0.12969534 
  368000   -1793318.7    15082.528    1577.0928    77.208503    89.153392    81.460908    1999.2378   0.15040731   0.15452827   0.20849264   0.51342821  0.032849305  0.033334341  0.063472998   0.12965664 
  369000   -1793281.2    15109.636    1700.8928    77.208503    89.153392    81.460908    2002.8311   0.14913159   0.15299447    0.2083974   0.51052347   0.03258855  0.032126381  0.064951664   0.12966659 
  370000   -1793382.9    15102.626    717.62974    77.208503    89.153392    81.460908    2001.9019   0.14960349   0.15357688   0.20908764   0.51226802  0.032150983  0.032746732  0.064241711   0.12913943 
  371000   -1793248.5    15049.797    1234.5911    77.208503    89.153392    81.460908    1994.8992   0.14906094   0.15208948    0.2101379   0.51128833  0.031681401  0.031668554     0.065645   0.12899496 
  372000     -1793213    15025.612    2334.1104    77.208503    89.153392    81.460908    1991.6933   0.15140917   0.15385384   0.21145899     0.516722  0.033036805  0.032510082  0.065138673   0.13068556 
  373000   -1793281.6    15122.505    1377.9003    77.208503    89.153392    81.460908    2004.5368   0.15164929   0.15180275     0.210718   0.51417004  0.032021516  0.030999004  0.064713544   0.12773406 
  374000     -1793271    15025.468     1545.268    77.208503    89.153392    81.460908    1991.6743   0.15124083   0.15542441   0.21017885   0.51684409  0.032514116  0.032792711  0.063900876    0.1292077 
  375000   -1793311.4    15045.146    1419.2482    77.208503    89.153392    81.460908    1994.2827   0.15017553   0.15493424   0.20906415   0.51417392  0.031722503  0.033239439  0.063330004   0.12829195 
  376000     -1793293     15011.93    1625.0787    77.208503    89.153392    81.460908    1989.8797   0.15126152    0.1548225   0.21185136   0.51793539  0.031859538  0.032968513  0.066720156   0.13154821 
  377000   -1793218.7    15114.622    2456.5963    77.208503    89.153392    81.460908    2003.4919   0.15242635   0.15502082   0.21321151   0.52065867  0.032567533  0.033112683  0.066901512   0.13258173 
  378000   -1793248.4    15025.948     2376.737    77.208503    89.153392    81.460908     1991.738   0.15386077   0.15574137   0.21209388   0.52169601  0.033020895  0.032705631  0.066025336   0.13175186 
[...]
  907000   -1793177.3    15017.712    1322.7891    77.208503    89.153392    81.460908    1990.6463   0.29468844   0.29572474   0.43025764    1.0206708  0.033681766   0.03312833   0.10140084   0.16821094 
  908000   -1793238.6     15063.07    1693.8923    77.208503    89.153392    81.460908    1996.6586   0.29448234   0.29719292   0.42957674     1.021252  0.034191411  0.033844974   0.10178298   0.16981937 
  909000     -1793262    15080.564    1644.2635    77.208503    89.153392    81.460908    1998.9775   0.29642208   0.29589586   0.43346927    1.0257872  0.034916367  0.033099929   0.10279275   0.17080905 
  910000   -1793220.8     15140.14    1701.2558    77.208503    89.153392    81.460908    2006.8744   0.29465505   0.29499697   0.42910709    1.0187591  0.033776055  0.033149313   0.10069866   0.16762403 
  911000   -1793270.9    15128.416    1575.5891    77.208503    89.153392    81.460908    2005.3204   0.29586864   0.29517615   0.43403071    1.0250755  0.033348801  0.032337621    0.1020447   0.16773112 
  912000   -1793231.8    15048.368    2191.4936    77.208503    89.153392    81.460908    1994.7098    0.2954036   0.29779748   0.43209511    1.0252962  0.033881836  0.032636015   0.10408929   0.17060714 
  913000   -1793320.3    15138.835    1712.8826    77.208503    89.153392    81.460908    2006.7015   0.29612357   0.29689115   0.43204028     1.025055  0.033677534  0.033220032   0.10280645   0.16970402 
  914000   -1793284.3    15094.331    1307.8643    77.208503    89.153392    81.460908    2000.8023    0.2971286   0.29520739    0.4313073    1.0236433  0.034259892  0.033075417   0.10360192   0.17093723 
  915000   -1793293.3    14972.691    1673.9938    77.208503    89.153392    81.460908    1984.6786   0.29555024   0.29805021   0.43008786    1.0236883  0.033749172  0.033519766   0.10047382   0.16774276 
  916000   -1793161.1    15115.139    1796.4142    77.208503    89.153392    81.460908    2003.5605   0.29533481   0.29776748   0.43290237    1.0260047  0.033030392  0.032754167   0.10109275   0.16687731 
  917000     -1793274     15152.98     1670.479    77.208503    89.153392    81.460908    2008.5764    0.2954711   0.29860366   0.43489982    1.0289746   0.03377158  0.034527789   0.10197487   0.17027424 
  918000   -1793347.8    15133.182    913.36292    77.208503    89.153392    81.460908    2005.9522   0.29741285   0.29883855   0.43673753    1.0329889  0.034401978  0.032813864   0.10227458   0.16949042 
  919000   -1793334.8    15174.636    953.33191    77.208503    89.153392    81.460908     2011.447   0.29714269   0.29944134   0.43459878    1.0311828  0.033778661  0.033811498   0.10288618   0.17047634 
  920000   -1793189.6    15074.541    1944.4463    77.208503    89.153392    81.460908    1998.1791   0.29537928   0.29889911   0.43464634    1.0289247  0.033032996  0.033269735    0.1013025   0.16760523 
  921000     -1793367    15035.082    1230.3227    77.208503    89.153392    81.460908    1992.9486   0.29668991   0.29879286   0.43460958    1.0300924  0.033568274  0.032713343   0.10205099    0.1683326 
  922000   -1793213.2    15126.644    1808.3402    77.208503    89.153392    81.460908    2005.0855   0.29723315   0.30064246   0.43723785    1.0351135  0.034183484   0.03341544   0.10387113   0.17147005 
  923000   -1793196.4    15104.011    2562.4776    77.208503    89.153392    81.460908    2002.0854   0.29784335   0.30122313   0.43703444    1.0361009  0.034067785  0.033125789   0.10070169   0.16789526 
  924000   -1793355.7    15074.445    996.10543    77.208503    89.153392    81.460908    1998.1664   0.29907861   0.30133023   0.43458914     1.034998  0.034434746  0.034051429  0.099180137   0.16766631 
  925000   -1793195.2    15097.069    1518.4098    77.208503    89.153392    81.460908    2001.1653   0.29955598   0.29773146   0.43326862    1.0305561  0.033526466  0.032289618  0.098197661   0.16401374 
  926000   -1793238.3    15053.407    1300.2995    77.208503    89.153392    81.460908    1995.3777   0.29832572   0.29923024   0.43621347    1.0337694  0.033932148  0.033349287   0.09798256   0.16526399 
  927000   -1793198.9     15098.14    2538.8554    77.208503    89.153392    81.460908    2001.3073   0.29870959   0.29986991   0.43853303    1.0371125  0.033782105  0.033077087   0.10114357   0.16800276 
  928000   -1793259.1    15167.563     2160.318    77.208503    89.153392    81.460908    2010.5095   0.29867355   0.29937303   0.43730677    1.0353534  0.034000284  0.032571108   0.10001517   0.16658656 
  929000   -1793198.3    15041.664    2084.3202    77.208503    89.153392    81.460908    1993.8212   0.29942415   0.30062928   0.44130367    1.0413571   0.03395846   0.03267741   0.10010015   0.16673602 
  930000   -1793330.1    14982.111    1020.0267    77.208503    89.153392    81.460908    1985.9272   0.30031852   0.30102236   0.44105522    1.0423961  0.033705272  0.032225027  0.097938411   0.16386871 
  931000   -1793253.3    15119.766    1559.2575    77.208503    89.153392    81.460908    2004.1737   0.29944482   0.30241315   0.44162515    1.0434831  0.034297981  0.033474528   0.09873728   0.16650979 
  932000   -1793312.1    15090.099    2011.0584    77.208503    89.153392    81.460908    2000.2413   0.30000336   0.30136902   0.43918184    1.0405542  0.033887283  0.033014744  0.098495519   0.16539755 
  933000   -1793265.8    15101.498    1281.3808    77.208503    89.153392    81.460908    2001.7523   0.30025405   0.30277205   0.43873035    1.0417564  0.034546035  0.033886286   0.10045776   0.16889008 
  934000   -1793216.2     15044.93    1971.5154    77.208503    89.153392    81.460908     1994.254   0.30065161   0.30327404   0.43938786    1.0433135  0.034145158  0.033637151   0.10095359    0.1687359 
  935000   -1793240.9     15124.71    1907.4012    77.208503    89.153392    81.460908    2004.8292   0.30178004   0.30186969   0.44052656    1.0441763  0.033210158  0.033341861  0.099918533   0.16647055 
  936000   -1793196.3    15163.677    2137.0664    77.208503    89.153392    81.460908    2009.9943   0.30158927   0.30509439    0.4438939    1.0505776   0.03501782  0.033648359  0.098997292   0.16766347 
  937000   -1793243.2    15050.438    1361.5288    77.208503    89.153392    81.460908    1994.9842   0.30324775   0.30490089   0.43841782    1.0465665  0.034734501  0.033545087  0.097759898   0.16603949 
  938000   -1793290.2     15139.73    1780.2214    77.208503    89.153392    81.460908    2006.8201   0.30332069   0.30480827   0.44383192    1.0519609  0.033342527  0.032621056   0.10378556   0.16974915 
  939000   -1793204.5    15057.038    1593.3202    77.208503    89.153392    81.460908     1995.859   0.30272542   0.30590845    0.4403244    1.0489583  0.032828679  0.033331678  0.099716745    0.1658771 
  940000   -1793336.8    15191.658    996.39466    77.208503    89.153392    81.460908    2013.7033   0.30482207    0.3045593   0.44308941    1.0524708  0.033558704   0.03276103  0.099767124   0.16608686 
  941000   -1793190.9    15009.822    1845.7312    77.208503    89.153392    81.460908    1989.6003   0.30358683   0.30323006   0.44472987    1.0515468  0.033344829  0.032872611   0.10532057   0.17153801 
  942000   -1793226.9    15104.008    2109.0828    77.208503    89.153392    81.460908    2002.0851   0.30406484   0.30513389   0.44492792    1.0541267  0.033692669  0.032541135   0.10125557   0.16748938 
  943000   -1793188.9     15101.03    1945.2807    77.208503    89.153392    81.460908    2001.6903   0.30294287   0.30642771   0.44545357    1.0548241  0.033379839  0.033596164   0.10255955   0.16953555 
  944000   -1793336.7    15154.586    1653.1453    77.208503    89.153392    81.460908    2008.7893   0.30377876   0.30557448   0.44723851    1.0565918  0.033705201  0.032841874   0.10042184   0.16696891 
  945000   -1793244.2    15161.782    2069.2997    77.208503    89.153392    81.460908    2009.7431   0.30494838   0.30545436   0.44621837    1.0566211  0.034313235  0.033407426   0.10094575   0.16866641 
  946000     -1793263    15067.984    2036.9181    77.208503    89.153392    81.460908    1997.3099   0.30315756   0.30741699   0.44555247     1.056127  0.033864163  0.033747397  0.097370188   0.16498175 
  947000   -1793206.7    15068.253    1620.6986    77.208503    89.153392    81.460908    1997.3455   0.30412305   0.30826923   0.44659545    1.0589877  0.034120441  0.034650453   0.10138705   0.17015795 
  948000   -1793258.1    15154.069    1014.6085    77.208503    89.153392    81.460908    2008.7208   0.30262714    0.3070522   0.44512469     1.054804  0.033565422  0.033557862  0.099465861   0.16658915 
  949000   -1793135.2    15072.515    2003.3891    77.208503    89.153392    81.460908    1997.9105   0.30387267   0.30651808    0.4517993      1.06219  0.034427257  0.033861348   0.10168404   0.16997264 
  950000   -1793349.9    15016.414    1486.6806    77.208503    89.153392    81.460908    1990.4741   0.30398107    0.3065019   0.44408556    1.0545685  0.033165408  0.033375723   0.10042184   0.16696297 
  951000     -1793168    15182.467    2489.5083    77.208503    89.153392    81.460908     2012.485   0.30543678   0.30874924   0.44484235    1.0590284  0.032884768  0.033216806  0.099086627    0.1651882 
  952000   -1793234.8    15135.328    911.44132    77.208503    89.153392    81.460908    2006.2366   0.30340988   0.30854363   0.44739639    1.0593499  0.033709334  0.033137228  0.099258746   0.16610531 
  953000   -1793229.5    15040.302    1638.9151    77.208503    89.153392    81.460908    1993.6407    0.3049894   0.30756487   0.44751865    1.0600729  0.032873819  0.032996014  0.099699975   0.16556981 
  954000   -1793231.2    15035.635    1553.8269    77.208503    89.153392    81.460908     1993.022   0.30597182   0.30876469   0.44980513    1.0645416  0.035165286   0.03352407  0.099428227   0.16811758 
  955000   -1793333.9    15151.473    750.61171    77.208503    89.153392    81.460908    2008.3767   0.30583394   0.30743499   0.44553689    1.0588058  0.034167078  0.032266386  0.096821849   0.16325531 
  956000   -1793252.7    15138.126    1638.2756    77.208503    89.153392    81.460908    2006.6075   0.30634413   0.30988744   0.45126297    1.0674945  0.032414759  0.033643114   0.10017947   0.16623734 
  957000   -1793299.5    15079.669    1043.2214    77.208503    89.153392    81.460908    1998.8589   0.30611225   0.30816956   0.45174292    1.0660247  0.033345176  0.032279816   0.10066989   0.16629488 
  958000   -1793243.1    15071.468    1577.1672    77.208503    89.153392    81.460908    1997.7718   0.30860419   0.30961716   0.45188531    1.0701067  0.034128227   0.03352388   0.10074509   0.16839719 
  959000   -1793310.7    15078.815    1418.6015    77.208503    89.153392    81.460908    1998.7456   0.30854436   0.30982741   0.44938235    1.0677541  0.033655747  0.032999313  0.098272302   0.16492736 
  960000   -1793262.9    15069.082    1293.3166    77.208503    89.153392    81.460908    1997.4555   0.30732328   0.31066745    0.4570368    1.0750275  0.033527788  0.033075814   0.10122529   0.16782889 
  961000   -1793212.1    15113.987     2563.624    77.208503    89.153392    81.460908    2003.4078   0.30856131   0.31050932   0.45748631    1.0765569   0.03369866  0.033196384   0.10151819   0.16841323 
  962000   -1793268.8    15114.357    1802.8404    77.208503    89.153392    81.460908    2003.4568   0.30838159   0.31059282   0.45789359     1.076868  0.033476203  0.033133288   0.10223926   0.16884875 
  963000   -1793333.5    15123.572    1262.0058    77.208503    89.153392    81.460908    2004.6784   0.30960073   0.31293884   0.45601677    1.0785563  0.034093259  0.033995408   0.10413755   0.17222622 
  964000     -1793314    15079.593     1663.799    77.208503    89.153392    81.460908    1998.8487   0.30975539   0.31393467   0.45522665    1.0789167  0.033360188  0.032777577    0.1002756   0.16641337 
  965000   -1793239.6    15171.484    1765.6055    77.208503    89.153392    81.460908    2011.0291   0.30988734   0.31021517   0.45788584    1.0779883  0.033142429  0.033097546   0.10137297   0.16761295 
  966000   -1793234.8    15090.723    1631.1825    77.208503    89.153392    81.460908    2000.3241   0.31126289   0.31048017   0.45657894     1.078322  0.034770845  0.032708778  0.099168659   0.16664828 
  967000   -1793151.9    15208.455    2300.0907    77.208503    89.153392    81.460908    2015.9298   0.31152455   0.31163321   0.45785604    1.0810138  0.034106286  0.033437028   0.10316254   0.17070585 
  968000   -1793293.9     15053.98    1649.9652    77.208503    89.153392    81.460908    1995.4536   0.31105564   0.31201253   0.45749563    1.0805638  0.033388109  0.032984233   0.10353412   0.16990647 
  969000   -1793270.1    15070.639    1223.7671    77.208503    89.153392    81.460908    1997.6618     0.311626   0.31020939   0.45988361     1.081719  0.033174033  0.033384026   0.10328915   0.16984721 
  970000   -1793217.4    15072.586    1745.7458    77.208503    89.153392    81.460908      1997.92   0.31036585   0.31168418    0.4587503    1.0808003   0.03321359  0.033081583   0.10124073    0.1675359 
  971000   -1793248.3    15181.561    1644.0033    77.208503    89.153392    81.460908    2012.3649   0.31097991   0.31209714   0.46196342    1.0850405  0.033893963  0.033206336   0.10441353   0.17151383 
  972000   -1793252.9    15176.352    2254.2936    77.208503    89.153392    81.460908    2011.6745   0.31385816   0.31313688   0.45611501    1.0831101  0.034500378  0.033665929   0.10213636   0.17030267 
  973000   -1793255.2    15041.875    839.27499    77.208503    89.153392    81.460908    1993.8491   0.31186794   0.31150507    0.4548744    1.0782474  0.033915093  0.033039706   0.10112311   0.16807791 
  974000   -1793372.5    15042.495    1085.8587    77.208503    89.153392    81.460908    1993.9312   0.31458615   0.31134171   0.45906647    1.0849943  0.033888994  0.032409557   0.10063153   0.16693008 
  975000   -1793273.5    15066.741     1365.054    77.208503    89.153392    81.460908    1997.1451   0.31278909   0.31245217   0.45508397    1.0803252  0.034211128  0.033615954  0.099896986   0.16772407 
  976000   -1793313.1    15160.841     1252.832    77.208503    89.153392    81.460908    2009.6185   0.31303963   0.31273966   0.45841388    1.0841932  0.034197369  0.033780849   0.10429707   0.17227529 
  977000   -1793245.9    15180.059      1743.66    77.208503    89.153392    81.460908    2012.1658   0.31383719   0.31478342   0.46029387    1.0889145  0.033632229  0.033953695   0.10162281   0.16920874 
  978000   -1793285.6    15011.889    949.38646    77.208503    89.153392    81.460908    1989.8744   0.31261685    0.3151128   0.45984058    1.0875702  0.033156081  0.033391607   0.10350768   0.17005537 
  979000   -1793229.3    15106.051    1928.2731    77.208503    89.153392    81.460908    2002.3559   0.31500754   0.31607836   0.45999323    1.0910791  0.033771405  0.033701471   0.10070271   0.16817559 
  980000   -1793299.9    15189.995      1377.16    77.208503    89.153392    81.460908    2013.4829   0.31423583   0.31499424   0.45781847    1.0870485  0.034760045  0.032963111   0.10052725   0.16825041 
  981000   -1793209.8    15077.572    1742.3203    77.208503    89.153392    81.460908    1998.5808   0.31333418   0.31339803   0.45793688    1.0846691  0.033626872  0.032920823   0.10108413   0.16763183 
  982000   -1793244.5    15098.055    1641.5051    77.208503    89.153392    81.460908     2001.296   0.31276043   0.31535113   0.46097532    1.0890869  0.033285339  0.032891498    0.1021752   0.16835204 
  983000   -1793222.7    15066.558    1997.2368    77.208503    89.153392    81.460908     1997.121   0.31404128   0.31499245   0.46232608    1.0913598  0.033937029  0.032820089   0.10243876   0.16919587 
  984000   -1793321.6    15098.314    1124.8838    77.208503    89.153392    81.460908    2001.3303   0.31608526   0.31531617   0.45913188    1.0905333   0.03371007  0.033797326   0.09928847   0.16679587 
  985000   -1793191.1    15051.103    2120.6495    77.208503    89.153392    81.460908    1995.0723   0.31616268   0.31753718   0.46469431    1.0983942  0.033719405  0.033141931   0.10112207   0.16798341 
  986000     -1793328    15078.173    1312.1641    77.208503    89.153392    81.460908    1998.6605   0.31439858   0.31859547   0.46024176    1.0932358  0.033484393  0.034009977  0.098573504   0.16606787 
  987000   -1793267.6    15151.065    1251.0307    77.208503    89.153392    81.460908    2008.3226   0.31679467     0.315233   0.46328712    1.0953148  0.033719761  0.032010224   0.10063779   0.16636777 
  988000   -1793293.3    15117.659    1276.2188    77.208503    89.153392    81.460908    2003.8945   0.31460486    0.3183701   0.46540503      1.09838  0.032906045  0.033994296   0.10095496    0.1678553 
  989000   -1793218.1    15094.776    2151.7038    77.208503    89.153392    81.460908    2000.8612   0.31467888   0.31894508   0.46199531    1.0956193  0.034415644  0.032661968  0.099798672   0.16687628 
  990000   -1793263.6    15089.603    1747.2815    77.208503    89.153392    81.460908    2000.1756   0.31543641   0.31887017   0.46744948    1.1017561  0.033744916  0.032451777   0.10186164   0.16805833 
  991000   -1793225.7     15109.36    1770.1594    77.208503    89.153392    81.460908    2002.7945   0.31437676   0.31989412   0.46523067    1.0995016  0.033108036  0.034065109  0.098611685   0.16578483 
  992000   -1793274.4     15093.16    1135.8415    77.208503    89.153392    81.460908    2000.6471   0.31591848   0.31852593     0.463815    1.0982594  0.033336104  0.033047724   0.09809598   0.16447981 
  993000   -1793296.7    14979.459    1000.2437    77.208503    89.153392    81.460908    1985.5756   0.31614656   0.31881361   0.46666394    1.1016241  0.033325429  0.033921524  0.098031978   0.16527893 
  994000   -1793246.9     15042.38    2743.1841    77.208503    89.153392    81.460908     1993.916   0.31718324    0.3177969   0.46540501    1.1003851  0.033990364  0.033321951  0.098106229   0.16541854 
  995000   -1793181.1    15154.063     2285.079    77.208503    89.153392    81.460908    2008.7199   0.31530619   0.31974106   0.46268101    1.0977282  0.034161822  0.034213159  0.097424466   0.16579945 
  996000   -1793267.9    15123.876    867.00538    77.208503    89.153392    81.460908    2004.7187   0.31730668   0.31856924   0.46561937    1.1014953   0.03299058  0.032732459  0.098707728   0.16443077 
  997000   -1793195.1    15060.987    1452.9016    77.208503    89.153392    81.460908    1996.3825   0.31680988   0.31972722   0.46390939    1.1004465  0.033017591  0.033590367  0.097277466   0.16388542 
  998000   -1793383.1    15115.745    1518.6441    77.208503    89.153392    81.460908    2003.6408   0.31802547    0.3194405   0.46687259    1.1043386  0.034329535  0.034145304   0.10004044   0.16851528 
  999000   -1793308.4    15196.749    1808.2299    77.208503    89.153392    81.460908    2014.3781   0.31708139   0.31841356   0.46811304     1.103608  0.033226644  0.033240852   0.10159617   0.16806367 
 1000000   -1793296.5    15050.953    1238.0822    77.208503    89.153392    81.460908    1995.0524   0.31911712   0.31815646   0.47063878    1.1079124  0.032892326  0.033882544   0.10173221   0.16850708 
Loop time of 135342 on 15 procs for 1000000 steps with 58365 atoms

Pair  time (%) = 87218.6 (64.4432)
Kspce time (%) = 41303.2 (30.5177)
Neigh time (%) = 2219.85 (1.64018)
Comm  time (%) = 3148.27 (2.32616)
Outpt time (%) = 4.6909 (0.00346596)
Other time (%) = 1447.2 (1.06929)

Nlocal:    3891 ave 3922 max 3834 min
Histogram: 3 0 1 0 0 0 2 1 5 3
Nghost:    18519.7 ave 18649 max 18403 min
Histogram: 5 1 0 0 0 4 0 2 0 3
Neighs:    1.48242e+06 ave 1.53334e+06 max 1.43449e+06 min
Histogram: 1 2 0 4 0 3 2 0 1 2

Total # of neighbors = 22236319
Ave neighs/atom = 380.987
Neighbor list builds = 35680
Dangerous builds = 0
