LAMMPS (28 Jun 2014)
Running on 41 partitions of processors
Step MaxReplicaForce MaxAtomForce GradV0 GradV1 GradVc EBF EBR RDT RD1 PE1 RD2 PE2 ... RDN PEN
0    100.80384    25.528572    100.80384    100.78671    100.80384            0 0.0086247906    3.9522634            0   -14826.356        0.025   -14828.384         0.05   -14830.212        0.075   -14831.846          0.1   -14833.287        0.125   -14834.544         0.15   -14835.621        0.175   -14836.526          0.2   -14837.267        0.225   -14837.854         0.25     -14838.3        0.275   -14838.622          0.3   -14838.834        0.325   -14838.957         0.35   -14839.008        0.375   -14839.008          0.4   -14838.976        0.425    -14838.93         0.45   -14838.886        0.475   -14838.855          0.5   -14838.846        0.525   -14838.857         0.55    -14838.89        0.575   -14838.936          0.6   -14838.984        0.625   -14839.017         0.65   -14839.018        0.675   -14838.968          0.7   -14838.846        0.725   -14838.635         0.75   -14838.313        0.775   -14837.867          0.8    -14837.28        0.825   -14836.538         0.85   -14835.633        0.875   -14834.556          0.9   -14833.299        0.925   -14831.856         0.95   -14830.223        0.975   -14828.394            1   -14826.364 
100   0.36608798  0.094220109   0.22364177   0.22358509   0.26915333    1.3764267    1.3762062    4.6438343            0   -14916.767 0.0067621206   -14916.765  0.014810703   -14916.762   0.02528529   -14916.766  0.038975863   -14916.765  0.055836614   -14916.762  0.075131172   -14916.747  0.096817712   -14916.716   0.12102508   -14916.647   0.14768083   -14916.532   0.17624078   -14916.387   0.20621088   -14916.235   0.23742903   -14916.098   0.26989905   -14915.989   0.30344079   -14915.903   0.33744355   -14915.816   0.37125702   -14915.707   0.40452409   -14915.589   0.43708257   -14915.485   0.46897357   -14915.415   0.50045344    -14915.39   0.53193497   -14915.416   0.56382944   -14915.485   0.59639209    -14915.59   0.62966232   -14915.708   0.66347627   -14915.816   0.69747541   -14915.903    0.7310074   -14915.989   0.76346377   -14916.099    0.7946667   -14916.236   0.82462043   -14916.388   0.85316124   -14916.533   0.87979132   -14916.647    0.9039595   -14916.716   0.92558364   -14916.746   0.94478549   -14916.761   0.96150278   -14916.765   0.97522214   -14916.766   0.98562483   -14916.762    0.9934452   -14916.765            1   -14916.766 
200   0.14009888    0.0852105  0.043472533  0.043470034  0.045233803    1.3700838    1.3698582    4.3518141            0   -14916.776 0.0095576336   -14916.775   0.01935165   -14916.774  0.030167955   -14916.772  0.042575224   -14916.768  0.057146194   -14916.752  0.074405297   -14916.716  0.094292137   -14916.652    0.1166228   -14916.559   0.14129997   -14916.441   0.16821204   -14916.313   0.19710171   -14916.188   0.22763442   -14916.079   0.25949688   -14915.991   0.29240443   -14915.914   0.32610487    -14915.83   0.36039252   -14915.727   0.39507764   -14915.611   0.42999707   -14915.505   0.46503331   -14915.432   0.50011365   -14915.406   0.53519347   -14915.432   0.57022802   -14915.506   0.60514427   -14915.612   0.63982413   -14915.727   0.67410377   -14915.831   0.70779288   -14915.915   0.74068574   -14915.991   0.77253068   -14916.079   0.80304519   -14916.188   0.83191819   -14916.314   0.85881613   -14916.442   0.88348109   -14916.559   0.90579967   -14916.652   0.92567486   -14916.716   0.94292626   -14916.752   0.95748591   -14916.768   0.96987295   -14916.772   0.98067356   -14916.774   0.99046258   -14916.775            1   -14916.775 
300  0.074989462  0.056338443  0.027193487  0.027216417  0.026183541    1.3688966    1.3687578    4.4034567            0   -14916.776   0.01620795   -14916.776  0.032611032   -14916.774  0.049246567   -14916.767  0.066468642   -14916.745  0.084528266   -14916.701    0.1036566   -14916.633   0.12404312   -14916.544   0.14584314   -14916.439   0.16908934   -14916.326   0.19379402   -14916.215    0.2199199   -14916.115   0.24739588   -14916.029   0.27612525   -14915.958   0.30598838   -14915.888   0.33683553   -14915.806   0.36850225   -14915.707   0.40082252   -14915.598   0.43363514   -14915.499   0.46677918   -14915.431   0.50008975   -14915.407    0.5333995   -14915.432   0.56654097     -14915.5   0.59934934   -14915.599   0.63166365   -14915.707   0.66332307   -14915.807   0.69416172   -14915.888    0.7240151   -14915.958   0.75273398    -14916.03    0.7801988   -14916.115   0.80631286   -14916.216   0.83100538   -14916.327   0.85423882   -14916.439   0.87602709   -14916.544   0.89640253   -14916.633   0.91551911   -14916.701   0.93356821   -14916.744   0.95078027   -14916.767   0.96740601   -14916.774   0.98380022   -14916.775            1   -14916.776 
400  0.078767749  0.037001864 0.0017133757 0.0017148106 0.0023052199    1.3692303    1.3689103    4.4319289            0   -14916.776  0.019216515   -14916.776  0.038507241   -14916.774  0.057980987   -14916.761  0.077792519   -14916.726   0.09812206   -14916.663    0.1190664   -14916.577   0.14076278   -14916.474   0.16329939   -14916.363   0.18676302   -14916.254   0.21118026   -14916.153   0.23658096   -14916.066   0.26295516   -14915.993    0.2902644   -14915.929   0.31844709    -14915.86    0.3474203   -14915.778   0.37708072    -14915.68   0.40731204   -14915.579   0.43798393    -14915.49    0.4689556   -14915.429   0.50007889   -14915.407   0.53120151   -14915.429   0.56217114    -14915.49   0.59283975   -14915.579   0.62306638   -14915.681   0.65272127   -14915.778    0.6816876    -14915.86   0.70986292   -14915.929   0.73716368   -14915.994   0.76352888   -14916.066   0.78892029   -14916.153   0.81332764   -14916.254   0.83678178   -14916.364   0.85930812   -14916.475   0.88099475   -14916.578   0.90192832   -14916.663   0.92224701   -14916.726   0.94204823   -14916.761   0.96151224   -14916.774   0.98079324   -14916.776            1   -14916.776 
500   0.03466388  0.028874988 0.00064971306 0.00065954799 0.0012437215    1.3692911    1.3689227    4.4406721            0   -14916.776  0.020615232   -14916.776  0.041259544   -14916.773  0.062028213   -14916.757  0.083017024   -14916.714   0.10441722   -14916.642   0.12637055   -14916.547   0.14886242   -14916.437   0.17196414   -14916.325   0.19575164   -14916.217   0.22026331   -14916.121    0.2455193    -14916.04   0.27152281   -14915.973   0.29825176   -14915.911    0.3256629   -14915.842   0.35369509   -14915.758   0.38227259   -14915.663   0.41130542   -14915.566   0.44069216   -14915.484   0.47032098   -14915.427   0.50007242   -14915.407   0.52982331   -14915.427    0.5594504   -14915.484   0.58883439   -14915.567   0.61786339   -14915.664   0.64643608   -14915.759   0.67446264   -14915.842   0.70186761   -14915.911   0.72858981   -14915.974   0.75458596   -14916.041   0.77983432   -14916.122   0.80433854   -14916.217   0.82811849   -14916.325   0.85121313   -14916.438   0.87370263   -14916.547   0.89565355   -14916.642   0.91703648   -14916.714    0.9380077   -14916.757    0.9587643   -14916.773   0.97939673   -14916.776            1   -14916.776 
600   0.17603172  0.021324621 0.0002330769 0.0002329712 0.00097336284    1.3693252    1.3690277    4.4476164            0   -14916.776  0.021732312   -14916.776  0.043476422   -14916.773  0.065316154   -14916.753  0.087383824   -14916.703   0.10973202   -14916.623   0.13246871    -14916.52   0.15560221   -14916.406   0.17919139   -14916.292   0.20328543   -14916.187   0.22792504   -14916.096   0.25312024   -14916.021   0.27886394   -14915.957    0.3051406   -14915.895   0.33192269   -14915.825   0.35916859   -14915.742   0.38682315   -14915.648   0.41482022   -14915.556   0.44308375   -14915.479   0.47152955   -14915.425   0.50006786   -14915.407   0.52860573   -14915.426   0.55705021   -14915.479   0.58531153   -14915.556   0.61330551   -14915.649   0.64095636   -14915.742   0.66819798   -14915.825   0.69497529   -14915.895   0.72124713   -14915.957   0.74698645   -14916.021   0.77217747   -14916.096   0.79681214   -14916.187   0.82089943   -14916.293   0.84448189   -14916.407     0.867609   -14916.521   0.89034132   -14916.623   0.91267724   -14916.703   0.93473342   -14916.753   0.95655631   -14916.773   0.97828388   -14916.776            1   -14916.776 
700  0.073764444  0.016238554 0.00011233192 0.00011240632 0.00091027249    1.3693442    1.3690201    4.4523464            0   -14916.776  0.022556291   -14916.776  0.045117424   -14916.773  0.067752858    -14916.75  0.090543281   -14916.695   0.11353724   -14916.608   0.13679844   -14916.501   0.16037378   -14916.384   0.18429975    -14916.27   0.20860932   -14916.167   0.23332633   -14916.079   0.25846222   -14916.007   0.28401739   -14915.945   0.30998104   -14915.883   0.33632944   -14915.813   0.36302993   -14915.729   0.39003991   -14915.638   0.41730882   -14915.548   0.44477987   -14915.475   0.47238896   -14915.424   0.50006817   -14915.407   0.52774706   -14915.424   0.55535519   -14915.475   0.58282441   -14915.549   0.61009137   -14915.638   0.63709838    -14915.73   0.66379539   -14915.813   0.69013993   -14915.883   0.71609902   -14915.945   0.74164904   -14916.008   0.76677908    -14916.08   0.79148953   -14916.167   0.81579164    -14916.27   0.83970955   -14916.385   0.86327565   -14916.501   0.88652637   -14916.609   0.90950797   -14916.695   0.93228755    -14916.75   0.95490999   -14916.772   0.97745757   -14916.776            1   -14916.776 
800  0.019161504  0.013043892 6.4914803e-05 6.4908438e-05 0.00088526521    1.3693529    1.3690309    4.4553576            0   -14916.776  0.022993507   -14916.776  0.045990698   -14916.772  0.069042301   -14916.748  0.092212897    -14916.69   0.11556351   -14916.601   0.13913216   -14916.491   0.16295263   -14916.373   0.18706191   -14916.259   0.21148785   -14916.156   0.23624921   -14916.071   0.26135672       -14916   0.28681155   -14915.939   0.31260443   -14915.877   0.33871597   -14915.806   0.36511882   -14915.723   0.39177852   -14915.632   0.41865341   -14915.544   0.44569572   -14915.473    0.4728526   -14915.424   0.50006755   -14915.407   0.52728219   -14915.424   0.55443812   -14915.473   0.58147887   -14915.545   0.60835156   -14915.633   0.63500845   -14915.724   0.66140784   -14915.806   0.68751521   -14915.877   0.71330331   -14915.939   0.73875253       -14916   0.76385369   -14916.071   0.78860785   -14916.157   0.81302567   -14916.259   0.83712595   -14916.373    0.8609362   -14916.491   0.88449289   -14916.601   0.90783081    -14916.69   0.93099206   -14916.748   0.95403321   -14916.772   0.97701865   -14916.776            1   -14916.776 
900  0.089426209 0.0093304071 6.0061165e-05 5.8740568e-05 0.00084293661    1.3693087    1.3690602     4.460276            0   -14916.776  0.023609296   -14916.776  0.047215368   -14916.772  0.070858691   -14916.746  0.094581148   -14916.684   0.11842096    -14916.59   0.14240646   -14916.476   0.16657144   -14916.357   0.19093805   -14916.243   0.21552673   -14916.142   0.24035192   -14916.059   0.26542125    -14915.99   0.29073584    -14915.93   0.31628955   -14915.868   0.34206895   -14915.797    0.3680546   -14915.714   0.39422249   -14915.624   0.42054321   -14915.539   0.44698255    -14915.47   0.47350326   -14915.423   0.50006516   -14915.407   0.52662667   -14915.423   0.55314647    -14915.47   0.57958415   -14915.539   0.60590226   -14915.625   0.63206692   -14915.714   0.65804885   -14915.797   0.68382371   -14915.869   0.70937195    -14915.93   0.73468034   -14915.991   0.75974274   -14916.059    0.7845604   -14916.142    0.8091409   -14916.243   0.83349866   -14916.357   0.85765393   -14916.477   0.88162964    -14916.59   0.90545965   -14916.684   0.92917072   -14916.746   0.95280445   -14916.772   0.97640087   -14916.776            1   -14916.776 
1000   0.17373252  0.017859173 0.00013035684 0.00013388935 0.00080519195    1.3693272     1.369028    4.4647022            0   -14916.776  0.024053159   -14916.776  0.048101664   -14916.772  0.072170132   -14916.744   0.09629162    -14916.68    0.1204965   -14916.583     0.144795   -14916.466   0.16921184   -14916.346   0.19376731   -14916.232   0.21847649   -14916.132   0.24334953   -14916.051    0.2683922   -14915.984   0.29360477   -14915.924   0.31898448   -14915.862   0.34452103    -14915.79   0.37020178   -14915.707   0.39600977   -14915.618   0.42192461   -14915.535   0.44792271   -14915.468    0.4739776   -14915.422   0.50006125   -14915.407   0.52614454   -14915.422   0.55219837   -14915.468   0.57819469   -14915.535   0.60410702   -14915.619   0.62991182   -14915.707   0.65558866    -14915.79   0.68112038   -14915.862   0.70649448   -14915.925   0.73170185   -14915.984   0.75673751   -14916.051   0.78160323   -14916.132   0.80630473   -14916.232   0.83085219   -14916.346   0.85526125   -14916.466    0.8795505   -14916.583   0.90374491    -14916.68   0.92785543   -14916.744   0.95191576   -14916.772   0.97595558   -14916.776            1   -14916.776 
Climbing replica = 21
Step MaxReplicaForce MaxAtomForce GradV0 GradV1 GradVc EBF EBR RDT RD1 PE1 RD2 PE2 ... RDN PEN
1000   0.17373252  0.017859173 0.00013035684 0.00013388935 0.00080519195    1.3693272     1.369028    4.4647022            0   -14916.776  0.024053159   -14916.776  0.048101664   -14916.772  0.072170132   -14916.744   0.09629162    -14916.68    0.1204965   -14916.583     0.144795   -14916.466   0.16921184   -14916.346   0.19376731   -14916.232   0.21847649   -14916.132   0.24334953   -14916.051    0.2683922   -14915.984   0.29360477   -14915.924   0.31898448   -14915.862   0.34452103    -14915.79   0.37020178   -14915.707   0.39600977   -14915.618   0.42192461   -14915.535   0.44792271   -14915.468    0.4739776   -14915.422   0.50006125   -14915.407   0.52614454   -14915.422   0.55219837   -14915.468   0.57819469   -14915.535   0.60410702   -14915.619   0.62991182   -14915.707   0.65558866    -14915.79   0.68112038   -14915.862   0.70649448   -14915.925   0.73170185   -14915.984   0.75673751   -14916.051   0.78160323   -14916.132   0.80630473   -14916.232   0.83085219   -14916.346   0.85526125   -14916.466    0.8795505   -14916.583   0.90374491    -14916.68   0.92785543   -14916.744   0.95191576   -14916.772   0.97595558   -14916.776            1   -14916.776 
1100 0.0066078576 0.0052933831 1.7885763e-05 1.7634612e-05 0.00013697579    1.3694308    1.3690452    4.4664992            0   -14916.776  0.024221166   -14916.776  0.048437154   -14916.772  0.072668239   -14916.743  0.096939601   -14916.678   0.12127478    -14916.58    0.1456917   -14916.462   0.17020773   -14916.341   0.19483823   -14916.228   0.21959541   -14916.129   0.24448814   -14916.047   0.26952131   -14915.981   0.29469626   -14915.922   0.32000939   -14915.859   0.34545283   -14915.787   0.37101515   -14915.704   0.39668153   -14915.616   0.42243412   -14915.533   0.44825257   -14915.467   0.47411451   -14915.422   0.49999668   -14915.407    0.5259153   -14915.422    0.5518056   -14915.467   0.57764382   -14915.534    0.6034085   -14915.617   0.62908056   -14915.705   0.65464375   -14915.787   0.68008483    -14915.86    0.7053937   -14915.922    0.7305632   -14915.981   0.75559019   -14916.048   0.78047605   -14916.129   0.80522592   -14916.228    0.8298487   -14916.342   0.85435665   -14916.463   0.87876522    -14916.58   0.90309185   -14916.678   0.92735504   -14916.743   0.95157815   -14916.772   0.97578639   -14916.776            1   -14916.776 
1200  0.023588104 0.0039506772 3.2164108e-05 3.377307e-05 3.1069422e-05    1.3693938    1.3690545    4.4692137            0   -14916.776  0.024438693   -14916.776  0.048871671   -14916.772  0.073314458   -14916.743  0.097784098   -14916.676   0.12229744   -14916.576   0.14686867   -14916.457   0.17151183   -14916.336   0.19623785   -14916.222   0.22105611   -14916.124   0.24597307   -14916.043   0.27099254   -14915.978   0.29611548   -14915.919    0.3213394   -14915.856   0.34665877   -14915.784   0.37206569   -14915.701    0.3975498   -14915.614   0.42309863   -14915.532   0.44869778   -14915.466   0.47433135   -14915.422   0.49998233   -14915.407   0.52565311   -14915.422   0.55130535   -14915.466   0.57692129   -14915.532   0.60248443   -14915.614   0.62798007   -14915.701   0.65339546   -14915.784   0.67872042   -14915.856   0.70394706   -14915.919   0.72907032   -14915.978   0.75408813   -14916.044   0.77900139   -14916.124   0.80381478   -14916.222   0.82853503   -14916.336   0.85317182   -14916.458    0.8777366   -14916.576   0.90224299   -14916.676     0.926706   -14916.743    0.9511419   -14916.771   0.97556815   -14916.776            1   -14916.776 
1300  0.037774664 0.0039841704 5.8494031e-05 6.9554748e-05 6.4079587e-05    1.3693313    1.3689819      4.47139            0   -14916.776  0.024595427   -14916.776  0.049185302   -14916.772   0.07378009   -14916.742   0.09839419   -14916.674   0.12303762   -14916.574   0.14772291   -14916.454   0.17245949   -14916.332   0.19725603   -14916.219   0.22211948   -14916.121    0.2470549   -14916.041   0.27206559   -14915.976    0.2971524   -14915.917   0.32231375   -14915.854   0.34754578   -14915.781   0.37284275   -14915.699   0.39819722   -14915.612   0.42359998    -14915.53   0.44904038   -14915.465   0.47450661   -14915.422   0.49998598   -14915.407   0.52547851   -14915.422   0.55095751   -14915.466    0.5764099    -14915.53   0.60182348   -14915.612   0.62718736   -14915.699   0.65249215   -14915.781   0.67773023   -14915.854   0.70289587   -14915.917   0.72798524   -14915.976   0.75299685   -14916.041   0.77793163   -14916.121   0.80279294   -14916.219    0.8275862   -14916.332   0.85231835   -14916.454   0.87699843   -14916.574   0.90163576   -14916.674   0.92624262   -14916.742   0.95083047   -14916.771    0.9754126   -14916.776            1   -14916.776 
1400 0.0027781638 0.0022270048 1.8347068e-05 1.9840943e-05 1.9361041e-05     1.369357    1.3689978    4.4729206            0   -14916.776  0.024695633   -14916.776  0.049386155   -14916.772  0.074079254   -14916.742  0.098785459   -14916.673   0.12351472   -14916.572   0.14827453   -14916.452   0.17307261    -14916.33   0.19791587   -14916.216   0.22280995   -14916.118   0.24775888   -14916.039   0.27276522   -14915.974   0.29782973   -14915.915   0.32295129   -14915.852   0.34812708   -14915.779   0.37335279   -14915.697   0.39862272    -14915.61   0.42392986   -14915.529   0.44926602   -14915.465   0.47462211   -14915.421   0.49998832   -14915.407   0.52536474   -14915.421   0.55073077   -14915.465   0.57607637   -14915.529    0.6013922   -14915.611   0.62666989   -14915.697   0.65190226    -14915.78   0.67708349   -14915.853    0.7022092   -14915.915   0.72727651   -14915.974   0.75228429   -14916.039    0.7772334   -14916.119   0.80212635   -14916.216   0.82696733    -14916.33   0.85176201   -14916.452   0.87651727   -14916.572   0.90124088   -14916.673    0.9259414   -14916.742   0.95062834   -14916.771   0.97531181   -14916.776            1   -14916.776 
1500  0.027620478 0.0029348917 4.6543892e-05 4.6115981e-05 4.7493139e-05    1.3692932     1.369031    4.4745074            0   -14916.776   0.02479107   -14916.776  0.049577942   -14916.772  0.074365992   -14916.742  0.099162421   -14916.673   0.12397464    -14916.57   0.14880758    -14916.45   0.17366646   -14916.327   0.19855638   -14916.214   0.22348136   -14916.116   0.24844453   -14916.037   0.27344764   -14915.972   0.29849126   -14915.914   0.32357472   -14915.851   0.34869608   -14915.778   0.37385244   -14915.695   0.39903985   -14915.609   0.42425342   -14915.528   0.44948741   -14915.465   0.47473544   -14915.421   0.49999062   -14915.407   0.52525335   -14915.421    0.5505088   -14915.465   0.57574992   -14915.528   0.60097012   -14915.609   0.62616355   -14915.696   0.65132517   -14915.778   0.67645095   -14915.851   0.70153783   -14915.914   0.72658384   -14915.973   0.75158825   -14916.037   0.77655165   -14916.116   0.80147599   -14916.214   0.82636432   -14916.327   0.85122063    -14916.45    0.8760499    -14916.57   0.90085751   -14916.673   0.92564954   -14916.741   0.95043275   -14916.771   0.97521436   -14916.776            1   -14916.776 
1600 0.0019479429 0.0012350231 1.6106587e-05 1.6273057e-05 1.6640205e-05    1.3693503     1.369053    4.4752418            0   -14916.776  0.024832784   -14916.776  0.049661904   -14916.772  0.074491811   -14916.742  0.099328137   -14916.672   0.12417626    -14916.57   0.14904093   -14916.449   0.17392669   -14916.326   0.19883744   -14916.213   0.22377639   -14916.116   0.24874598   -14916.036   0.27374779   -14915.972   0.29878238   -14915.913   0.32384919    -14915.85   0.34894672   -14915.777    0.3740726   -14915.695   0.39922362   -14915.609   0.42439584   -14915.528   0.44958458   -14915.464   0.47478467   -14915.421   0.49999054   -14915.407   0.52520298   -14915.421   0.55040949   -14915.465   0.57560437   -14915.528   0.60078228   -14915.609   0.62593847   -14915.695   0.65106888   -14915.777   0.67617022    -14915.85   0.70124004   -14915.913   0.72627677   -14915.972   0.75127985   -14916.036   0.77624984   -14916.116   0.80118833   -14916.213   0.82609781   -14916.326   0.85098155   -14916.449   0.87584352    -14916.57   0.90068832   -14916.672   0.92552091   -14916.741   0.95034679   -14916.771   0.97517161   -14916.776            1   -14916.776 
1700 0.0021111875 0.00082061036 2.5832292e-05 2.5543993e-05 2.5109975e-05    1.3693045    1.3690127    4.4763079            0   -14916.776  0.024889351   -14916.776  0.049775907   -14916.772   0.07466263   -14916.741  0.099553319   -14916.672   0.12445128   -14916.569   0.14936018   -14916.448   0.17428291   -14916.325   0.19922221   -14916.211    0.2241803   -14916.114   0.24915893   -14916.035   0.27415923   -14915.971   0.29918159   -14915.912   0.32422569   -14915.849   0.34929056   -14915.776    0.3743746   -14915.694   0.39947566   -14915.608   0.42459109   -14915.527   0.44971774   -14915.464   0.47485208   -14915.421   0.49999034   -14915.407   0.52513361   -14915.421   0.55027283   -14915.464   0.57540414   -14915.527   0.60052393   -14915.608   0.62562897   -14915.694   0.65071653   -14915.776   0.67578437   -14915.849   0.70083092   -14915.912   0.72585511   -14915.971   0.75085655   -14916.035   0.77583571   -14916.114   0.80079376   -14916.211   0.82573249   -14916.325   0.85065407   -14916.448   0.87556131   -14916.569   0.90045722   -14916.672   0.92534549   -14916.741    0.9502296   -14916.771   0.97511343   -14916.776            1   -14916.776 
1726 0.0009944637 0.00078105561 2.5944409e-05 2.8003915e-05 2.781295e-05    1.3693203    1.3689747    4.4764242            0   -14916.776  0.024895271   -14916.776   0.04978787   -14916.772  0.074680549   -14916.741   0.09957686   -14916.672   0.12448024   -14916.569    0.1493938   -14916.448   0.17432049   -14916.325   0.19926287   -14916.211   0.22422306   -14916.114    0.2492027   -14916.035   0.27420285   -14915.971   0.29922395   -14915.912   0.32426567   -14915.849   0.34932708   -14915.776   0.37440669   -14915.694   0.39950246   -14915.608   0.42461184   -14915.527   0.44973187   -14915.464   0.47485921   -14915.421   0.49999025   -14915.407   0.52512616   -14915.421   0.55025823   -14915.464   0.57538278   -14915.527   0.60049639   -14915.608     0.625596   -14915.694   0.65067902   -14915.776   0.67574334   -14915.849   0.70078743   -14915.912    0.7258103   -14915.971   0.75081165   -14916.035   0.77579187   -14916.114   0.80075204   -14916.211   0.82569382   -14916.325   0.85061943   -14916.448   0.87553148   -14916.569   0.90043296   -14916.672   0.92532706   -14916.741   0.95021729   -14916.771   0.97510732   -14916.776            1   -14916.776 
