481
Atoms. Timestep: 0
1 1.314 19.0766 3.398
1 5.609 16.5976 3.398
1 9.903 14.1176 3.398
1 14.198 11.6386 3.398
1 1.314 4.2 3.398
1 5.609 1.721 3.398
1 9.903 19.0766 3.398
1 14.198 16.5976 3.398
1 1.314 9.159 3.398
1 5.609 6.68 3.398
1 9.903 4.2 3.398
1 14.198 1.721 3.398
1 1.314 14.118 3.398
1 5.609 11.639 3.398
1 9.903 9.159 3.398
1 14.198 6.68 3.398
1 0 1.517 3.398
1 4.295 18.8736 3.398
1 8.589 16.3946 3.398
1 12.884 13.9146 3.398
1 0 6.476 3.398
1 4.295 3.997 3.398
1 8.589 1.517 3.398
1 12.884 18.8736 3.398
1 0 11.435 3.398
1 4.295 8.956 3.398
1 8.589 6.476 3.398
1 12.884 3.997 3.398
1 0 16.394 3.398
1 4.295 13.915 3.398
1 8.589 11.435 3.398
1 12.884 8.956 3.398
1 2.98 1.721 3.398
1 7.275 19.0766 3.398
1 11.569 16.5976 3.398
1 15.864 14.1176 3.398
1 2.98 6.68 3.398
1 7.275 4.2 3.398
1 11.569 1.721 3.398
1 15.864 19.0766 3.398
1 2.98 11.639 3.398
1 7.275 9.159 3.398
1 11.569 6.68 3.398
1 15.864 4.2 3.398
1 2.98 16.597 3.398
1 7.275 14.118 3.398
1 11.569 11.639 3.398
1 15.864 9.159 3.398
1 2.98 18.1146 10.195
1 7.275 15.6356 10.195
1 11.569 13.1556 10.195
1 15.864 10.6766 10.195
1 2.98 3.238 10.195
1 7.275 0.759 10.195
1 11.569 18.1146 10.195
1 15.864 15.6356 10.195
1 2.98 8.197 10.195
1 7.275 5.718 10.195
1 11.569 3.238 10.195
1 15.864 0.759 10.195
1 2.98 13.156 10.195
1 7.275 10.677 10.195
1 11.569 8.197 10.195
1 15.864 5.718 10.195
1 0 3.441 10.195
1 4.295 0.962 10.195
1 8.589 18.3186 10.195
1 12.884 15.8386 10.195
1 0 8.4 10.195
1 4.295 5.921 10.195
1 8.589 3.441 10.195
1 12.884 0.962 10.195
1 0 13.359 10.195
1 4.295 10.88 10.195
1 8.589 8.4 10.195
1 12.884 5.921 10.195
1 0 18.318 10.195
1 4.295 15.839 10.195
1 8.589 13.359 10.195
1 12.884 10.88 10.195
1 1.314 0.759 10.195
1 5.609 18.1146 10.195
1 9.903 15.6356 10.195
1 14.198 13.1556 10.195
1 1.314 5.718 10.195
1 5.609 3.238 10.195
1 9.903 0.759 10.195
1 14.198 18.1146 10.195
1 1.314 10.677 10.195
1 5.609 8.197 10.195
1 9.903 5.718 10.195
1 14.198 3.238 10.195
1 1.314 15.635 10.195
1 5.609 13.156 10.195
1 9.903 10.677 10.195
1 14.198 8.197 10.195
1 4.177 19.0766 7.929
1 8.472 16.5976 7.929
1 12.766 14.1176 7.929
1 17.061 11.6386 7.929
1 4.177 4.2 7.929
1 8.472 1.721 7.929
1 12.766 19.0766 7.929
1 17.061 16.5976 7.929
1 4.177 9.159 7.929
1 8.472 6.68 7.929
1 12.766 4.2 7.929
1 17.061 1.721 7.929
1 4.177 14.118 7.929
1 8.472 11.639 7.929
1 12.766 9.159 7.929
1 17.061 6.68 7.929
1 2.863 1.517 7.929
1 7.158 18.8736 7.929
1 11.452 16.3946 7.929
1 15.747 13.9146 7.929
1 2.863 6.476 7.929
1 7.158 3.997 7.929
1 11.452 1.517 7.929
1 15.747 18.8736 7.929
1 2.863 11.435 7.929
1 7.158 8.956 7.929
1 11.452 6.476 7.929
1 15.747 3.997 7.929
1 2.863 16.394 7.929
1 7.158 13.915 7.929
1 11.452 11.435 7.929
1 15.747 8.956 7.929
1 1.549 19.0766 7.929
1 5.843 16.5976 7.929
1 10.138 14.1176 7.929
1 14.432 11.6386 7.929
1 1.549 4.2 7.929
1 5.843 1.721 7.929
1 10.138 19.0766 7.929
1 14.432 16.5976 7.929
1 1.549 9.159 7.929
1 5.843 6.68 7.929
1 10.138 4.2 7.929
1 14.432 1.721 7.929
1 1.549 14.118 7.929
1 5.843 11.639 7.929
1 10.138 9.159 7.929
1 14.432 6.68 7.929
1 1.549 0.759 1.133
1 5.843 18.1146 1.133
1 10.138 15.6356 1.133
1 14.432 13.1556 1.133
1 1.549 5.718 1.133
1 5.843 3.238 1.133
1 10.138 0.759 1.133
1 14.432 18.1146 1.133
1 1.549 10.677 1.133
1 5.843 8.197 1.133
1 10.138 5.718 1.133
1 14.432 3.238 1.133
1 1.549 15.635 1.133
1 5.843 13.156 1.133
1 10.138 10.677 1.133
1 14.432 8.197 1.133
1 2.863 18.3186 1.133
1 7.158 15.8386 1.133
1 11.452 13.3596 1.133
1 15.747 10.8796 1.133
1 2.863 3.441 1.133
1 7.158 0.962 1.133
1 11.452 18.3186 1.133
1 15.747 15.8386 1.133
1 2.863 8.4 1.133
1 7.158 5.921 1.133
1 11.452 3.441 1.133
1 15.747 0.962 1.133
1 2.863 13.359 1.133
1 7.158 10.88 1.133
1 11.452 8.4 1.133
1 15.747 5.921 1.133
1 4.177 0.759 1.133
1 8.472 18.1146 1.133
1 12.766 15.6356 1.133
1 17.061 13.1556 1.133
1 4.177 5.718 1.133
1 8.472 3.238 1.133
1 12.766 0.759 1.133
1 17.061 18.1146 1.133
1 4.177 10.677 1.133
1 8.472 8.197 1.133
1 12.766 5.718 1.133
1 17.061 3.238 1.133
1 4.177 15.635 1.133
1 8.472 13.156 1.133
1 12.766 10.677 1.133
1 17.061 8.197 1.133
1 2.746 1.721 12.46
1 7.04 19.0766 12.46
1 11.335 16.5976 12.46
1 15.629 14.1176 12.46
1 2.746 6.68 12.46
1 7.04 4.2 12.46
1 11.335 1.721 12.46
1 15.629 19.0766 12.46
1 2.746 11.639 12.46
1 7.04 9.159 12.46
1 11.335 6.68 12.46
1 15.629 4.2 12.46
1 2.746 16.597 12.46
1 7.04 14.118 12.46
1 11.335 11.639 12.46
1 15.629 9.159 12.46
1 1.432 3.997 12.46
1 5.726 1.517 12.46
1 10.021 18.8736 12.46
1 14.315 16.3946 12.46
1 1.432 8.956 12.46
1 5.726 6.476 12.46
1 10.021 3.997 12.46
1 14.315 1.517 12.46
1 1.432 13.915 12.46
1 5.726 11.435 12.46
1 10.021 8.956 12.46
1 14.315 6.476 12.46
1 1.432 18.874 12.46
1 5.726 16.394 12.46
1 10.021 13.915 12.46
1 14.315 11.435 12.46
1 0.117 1.721 12.46
1 4.412 19.0766 12.46
1 8.706 16.5976 12.46
1 13.001 14.1176 12.46
1 0.117 6.68 12.46
1 4.412 4.2 12.46
1 8.706 1.721 12.46
1 13.001 19.0766 12.46
1 0.117 11.639 12.46
1 4.412 9.159 12.46
1 8.706 6.68 12.46
1 13.001 4.2 12.46
1 0.117 16.597 12.46
1 4.412 14.118 12.46
1 8.706 11.639 12.46
1 13.001 9.159 12.46
1 0.117 3.238 5.664
1 4.412 0.759 5.664
1 8.706 18.1146 5.664
1 13.001 15.6356 5.664
1 0.117 8.197 5.664
1 4.412 5.718 5.664
1 8.706 3.238 5.664
1 13.001 0.759 5.664
1 0.117 13.156 5.664
1 4.412 10.677 5.664
1 8.706 8.197 5.664
1 13.001 5.718 5.664
1 0.117 18.115 5.664
1 4.412 15.635 5.664
1 8.706 13.156 5.664
1 13.001 10.677 5.664
1 1.432 0.962 5.664
1 5.726 18.3186 5.664
1 10.021 15.8386 5.664
1 14.315 13.3596 5.664
1 1.432 5.921 5.664
1 5.726 3.441 5.664
1 10.021 0.962 5.664
1 14.315 18.3186 5.664
1 1.432 10.88 5.664
1 5.726 8.4 5.664
1 10.021 5.921 5.664
1 14.315 3.441 5.664
1 1.432 15.839 5.664
1 5.726 13.359 5.664
1 10.021 10.88 5.664
1 14.315 8.4 5.664
1 2.746 3.238 5.664
1 7.04 0.759 5.664
1 11.335 18.1146 5.664
1 15.629 15.6356 5.664
1 2.746 8.197 5.664
1 7.04 5.718 5.664
1 11.335 3.238 5.664
1 15.629 0.759 5.664
1 2.746 13.156 5.664
1 7.04 10.677 5.664
1 11.335 8.197 5.664
1 15.629 5.718 5.664
1 2.746 18.115 5.664
1 7.04 15.635 5.664
1 11.335 13.156 5.664
1 15.629 10.677 5.664
2 0 0 5.91569
2 4.295 17.3566 4.724
2 8.589 14.8766 4.724
2 12.884 12.3976 4.724
2 0 4.959 4.724
2 4.295 2.479 4.724
2 8.589 0 4.724
2 12.884 17.3566 4.724
2 0 9.918 4.724
2 4.295 7.438 4.724
2 8.589 4.959 4.724
2 12.884 2.479 4.724
2 0 14.877 4.724
2 4.295 12.397 4.724
2 8.589 9.918 4.724
2 12.884 7.438 4.724
2 0 0 3.59732
2 4.295 17.3566 2.073
2 8.589 14.8766 2.073
2 12.884 12.3976 2.073
2 0 4.959 2.073
2 4.295 2.479 2.073
2 8.589 0 2.073
2 12.884 17.3566 2.073
2 0 9.918 2.073
2 4.295 7.438 2.073
2 8.589 4.959 2.073
2 12.884 2.479 2.073
2 0 14.877 2.073
2 4.295 12.397 2.073
2 8.589 9.918 2.073
2 12.884 7.438 2.073
2 0 0 8.869
2 4.295 17.3566 8.869
2 8.589 14.8766 8.869
2 12.884 12.3976 8.869
2 0 4.959 8.869
2 4.295 2.479 8.869
2 8.589 0 8.869
2 12.884 17.3566 8.869
2 0 9.918 8.869
2 4.295 7.438 8.869
2 8.589 4.959 8.869
2 12.884 2.479 8.869
2 0 14.877 8.869
2 4.295 12.397 8.869
2 8.589 9.918 8.869
2 12.884 7.438 8.869
2 0 0 11.52
2 4.295 17.3566 11.52
2 8.589 14.8766 11.52
2 12.884 12.3976 11.52
2 0 4.959 11.52
2 4.295 2.479 11.52
2 8.589 0 11.52
2 12.884 17.3566 11.52
2 0 9.918 11.52
2 4.295 7.438 11.52
2 8.589 4.959 11.52
2 12.884 2.479 11.52
2 0 14.877 11.52
2 4.295 12.397 11.52
2 8.589 9.918 11.52
2 12.884 7.438 11.52
2 2.863 0 9.255
2 7.158 17.3566 9.255
2 11.452 14.8766 9.255
2 15.747 12.3976 9.255
2 2.863 4.959 9.255
2 7.158 2.479 9.255
2 11.452 0 9.255
2 15.747 17.3566 9.255
2 2.863 9.918 9.255
2 7.158 7.438 9.255
2 11.452 4.959 9.255
2 15.747 2.479 9.255
2 2.863 14.877 9.255
2 7.158 12.397 9.255
2 11.452 9.918 9.255
2 15.747 7.438 9.255
2 2.863 0 6.604
2 7.158 17.3566 6.604
2 11.452 14.8766 6.604
2 15.747 12.3976 6.604
2 2.863 4.959 6.604
2 7.158 2.479 6.604
2 11.452 0 6.604
2 15.747 17.3566 6.604
2 2.863 9.918 6.604
2 7.158 7.438 6.604
2 11.452 4.959 6.604
2 15.747 2.479 6.604
2 2.863 14.877 6.604
2 7.158 12.397 6.604
2 11.452 9.918 6.604
2 15.747 7.438 6.604
2 2.863 0 13.401
2 7.158 17.3566 13.401
2 11.452 14.8766 13.401
2 15.747 12.3976 13.401
2 2.863 4.959 13.401
2 7.158 2.479 13.401
2 11.452 0 13.401
2 15.747 17.3566 13.401
2 2.863 9.918 13.401
2 7.158 7.438 13.401
2 11.452 4.959 13.401
2 15.747 2.479 13.401
2 2.863 14.877 13.401
2 7.158 12.397 13.401
2 11.452 9.918 13.401
2 15.747 7.438 13.401
2 2.863 0 2.458
2 7.158 17.3566 2.458
2 11.452 14.8766 2.458
2 15.747 12.3976 2.458
2 2.863 4.959 2.458
2 7.158 2.479 2.458
2 11.452 0 2.458
2 15.747 17.3566 2.458
2 2.863 9.918 2.458
2 7.158 7.438 2.458
2 11.452 4.959 2.458
2 15.747 2.479 2.458
2 2.863 14.877 2.458
2 7.158 12.397 2.458
2 11.452 9.918 2.458
2 15.747 7.438 2.458
2 1.432 2.479 0.193
2 5.726 0 0.193
2 10.021 17.3566 0.193
2 14.315 14.8766 0.193
2 1.432 7.438 0.193
2 5.726 4.959 0.193
2 10.021 2.479 0.193
2 14.315 0 0.193
2 1.432 12.397 0.193
2 5.726 9.918 0.193
2 10.021 7.438 0.193
2 14.315 4.959 0.193
2 1.432 17.356 0.193
2 5.726 14.877 0.193
2 10.021 12.397 0.193
2 14.315 9.918 0.193
2 1.432 2.479 11.135
2 5.726 0 11.135
2 10.021 17.3566 11.135
2 14.315 14.8766 11.135
2 1.432 7.438 11.135
2 5.726 4.959 11.135
2 10.021 2.479 11.135
2 14.315 0 11.135
2 1.432 12.397 11.135
2 5.726 9.918 11.135
2 10.021 7.438 11.135
2 14.315 4.959 11.135
2 1.432 17.356 11.135
2 5.726 14.877 11.135
2 10.021 12.397 11.135
2 14.315 9.918 11.135
2 1.432 2.479 4.338
2 5.726 0 4.338
2 10.021 17.3566 4.338
2 14.315 14.8766 4.338
2 1.432 7.438 4.338
2 5.726 4.959 4.338
2 10.021 2.479 4.338
2 14.315 0 4.338
2 1.432 12.397 4.338
2 5.726 9.918 4.338
2 10.021 7.438 4.338
2 14.315 4.959 4.338
2 1.432 17.356 4.338
2 5.726 14.877 4.338
2 10.021 12.397 4.338
2 14.315 9.918 4.338
2 1.432 2.479 6.989
2 5.726 0 6.989
2 10.021 17.3566 6.989
2 14.315 14.8766 6.989
2 1.432 7.438 6.989
2 5.726 4.959 6.989
2 10.021 2.479 6.989
2 14.315 0 6.989
2 1.432 12.397 6.989
2 5.726 9.918 6.989
2 10.021 7.438 6.989
2 14.315 4.959 6.989
2 1.432 17.356 6.989
2 5.726 14.877 6.989
2 10.021 12.397 6.989
2 14.315 9.918 6.989
2 0 481
At48484481
Atoms. Timestep: 1726
1 1.32905 19.1023 3.49691
1 5.59161 16.6045 3.39203
1 9.88297 14.1263 3.40703
1 14.1776 11.6495 3.41412
1 1.29142 4.21004 3.38023
1 5.57451 1.72 3.38512
1 9.89539 19.0843 3.40111
1 14.1666 16.584 3.40393
1 1.2965 9.17488 3.39336
1 5.58932 6.68645 3.39053
1 9.89202 4.20671 3.40555
1 14.223 1.70666 3.3955
1 1.28665 14.1378 3.40738
1 5.5888 11.6524 3.39294
1 9.88263 9.16784 3.4072
1 14.1795 6.69797 3.41154
1 17.1479 1.51894 3.49957
1 4.32096 18.8534 3.39462
1 8.59062 16.3761 3.40078
1 12.8756 13.8919 3.41147
1 0.00319999 6.46017 3.39534
1 4.29245 3.96172 3.40499
1 8.5949 1.49432 3.40445
1 12.89 18.849 3.38958
1 17.1752 11.4226 3.40281
1 4.29419 8.9337 3.39149
1 8.58765 6.44927 3.40041
1 12.901 3.96395 3.39497
1 0.000507453 16.4222 3.39296
1 4.29476 13.9032 3.39282
1 8.58663 11.4147 3.39966
1 12.8783 8.93659 3.40979
1 2.95727 1.70689 3.38998
1 7.30299 19.0834 3.4053
1 11.5851 16.6087 3.39899
1 15.8834 14.1485 3.39169
1 2.99198 6.68667 3.39209
1 7.29064 4.20206 3.40252
1 11.6024 1.73326 3.41611
1 15.8802 19.0503 3.50322
1 2.99717 11.6532 3.3882
1 7.28918 9.16842 3.39286
1 11.5844 6.68988 3.41404
1 15.8691 4.23521 3.40418
1 3.00078 16.6132 3.38093
1 7.29345 14.1281 3.39264
1 11.5835 11.6483 3.40739
1 15.8789 9.17453 3.40648
1 2.94321 18.1399 10.2279
1 7.28626 15.6325 10.1972
1 11.5876 13.1495 10.2075
1 15.8802 10.6576 10.2042
1 3.01511 3.2467 10.2042
1 7.28969 0.750515 10.2036
1 11.6136 18.1152 10.2221
1 15.8868 15.6237 10.239
1 2.99737 8.18199 10.1853
1 7.29434 5.70944 10.1912
1 11.5878 3.23346 10.2102
1 15.8682 0.72549 10.142
1 2.99641 13.1398 10.1923
1 7.2918 10.6705 10.1914
1 11.5868 8.18494 10.2061
1 15.8929 5.69169 10.1931
1 17.1763 3.39426 10.2298
1 4.29234 0.986184 10.2322
1 8.59005 18.3416 10.1984
1 12.8903 15.8773 10.1953
1 0.00110472 8.4085 10.1967
1 4.30032 5.94105 10.1912
1 8.5902 3.4603 10.2011
1 12.8618 0.985814 10.2159
1 17.1735 13.3731 10.2047
1 4.29647 10.8997 10.1881
1 8.58824 8.42347 10.1981
1 12.8817 5.93516 10.2112
1 0.0293005 18.336 10.1395
1 4.27499 15.8789 10.212
1 8.589 13.3894 10.1972
1 12.8819 10.9011 10.2071
1 1.28454 0.77315 10.1363
1 5.57444 18.1039 10.1869
1 9.89044 15.6347 10.1979
1 14.1842 13.146 10.2093
1 1.29074 5.67914 10.2139
1 5.59649 3.22588 10.2022
1 9.8816 0.751935 10.2018
1 14.2393 18.1353 10.2324
1 1.29718 10.6585 10.1925
1 5.5913 8.18709 10.1906
1 9.88331 5.71021 10.2066
1 14.1776 3.22354 10.24
1 1.30535 15.6005 10.2053
1 5.59025 13.1498 10.1871
1 9.88585 10.6697 10.2039
1 14.1797 8.18159 10.2099
1 4.15146 19.0867 7.93956
1 8.45024 16.6088 7.93115
1 12.7471 14.1287 7.95033
1 17.0405 11.648 7.93557
1 4.16406 4.21399 7.92107
1 8.4557 1.72716 7.93368
1 12.7545 19.0905 7.96069
1 17.0333 16.5821 7.97159
1 4.16131 9.17007 7.92107
1 8.45533 6.69 7.93201
1 12.7538 4.21468 7.94654
1 17.0507 1.70632 7.85006
1 4.15713 14.1311 7.92984
1 8.45365 11.6527 7.934
1 12.7478 9.17028 7.94554
1 17.0505 6.68805 7.93069
1 2.8894 1.50049 7.96769
1 7.15777 18.8544 7.94039
1 11.4502 16.3832 7.93684
1 15.7398 13.8957 7.94333
1 2.86288 6.45166 7.92907
1 7.15847 3.97157 7.93214
1 11.4489 1.49689 7.9348
1 15.7653 18.8714 7.85403
1 2.86464 11.415 7.92416
1 7.15809 8.9354 7.92837
1 11.4513 6.45556 7.94057
1 15.751 3.9687 7.94542
1 2.8579 16.3768 7.95465
1 7.15804 13.8983 7.92982
1 11.4487 11.4175 7.93923
1 15.7469 8.93236 7.93398
1 1.54401 19.0925 7.85122
1 5.85684 16.6031 7.92801
1 10.1568 14.1342 7.9325
1 14.4479 11.6487 7.94169
1 1.56715 4.20396 7.95593
1 5.86326 1.72357 7.93983
1 10.1607 19.0858 7.94035
1 14.4555 16.6144 7.94717
1 1.56658 9.16877 7.92623
1 5.86028 6.68984 7.92341
1 10.1565 4.21033 7.94015
1 14.4349 1.75085 7.97656
1 1.56903 14.1217 7.9236
1 5.86139 11.6494 7.91977
1 10.1534 9.17234 7.93725
1 14.4488 6.69084 7.95093
1 1.33872 0.732887 1.12716
1 5.8596 18.1208 1.13332
1 10.1603 15.6276 1.14069
1 14.4483 13.1445 1.15686
1 1.56202 5.68965 1.10745
1 5.86302 3.22783 1.13457
1 10.1627 0.745215 1.138
1 14.4797 18.0927 1.13937
1 1.5647 10.6652 1.12978
1 5.85958 8.18563 1.12305
1 10.1564 5.70395 1.13692
1 14.4793 3.17052 1.12361
1 1.56105 15.6233 1.1556
1 5.85547 13.1535 1.12617
1 10.1518 10.6655 1.13913
1 14.4482 8.18299 1.14387
1 2.85997 18.3685 1.12951
1 7.15633 15.8695 1.13318
1 11.4524 13.3826 1.14152
1 15.7461 10.8992 1.13735
1 2.86803 3.45621 1.15326
1 7.16028 0.980597 1.14823
1 11.4725 18.3436 1.11584
1 15.7829 15.9102 1.12051
1 2.86062 8.41397 1.12638
1 7.15694 5.93684 1.13446
1 11.4525 3.45875 1.14419
1 15.8774 0.786649 1.13063
1 2.86636 13.3857 1.12632
1 7.15467 10.9044 1.13121
1 11.4474 8.41947 1.14409
1 15.7367 5.92836 1.1368
1 4.09776 0.753819 1.11375
1 8.46115 18.1093 1.13456
1 12.764 15.6226 1.13763
1 17.0445 13.1437 1.13738
1 4.15336 5.70582 1.12674
1 8.45452 3.22696 1.13652
1 12.7528 0.753873 1.16161
1 17.1462 18.3104 1.12488
1 4.15793 10.6646 1.12532
1 8.45139 8.18568 1.13654
1 12.7481 5.70703 1.15854
1 17.019 3.20927 1.1339
1 4.14778 15.6405 1.10563
1 8.45354 13.1495 1.13316
1 12.747 10.6645 1.14626
1 17.0391 8.18045 1.13741
1 2.69582 1.73169 12.4698
1 7.02371 19.0898 12.4643
1 11.3195 16.607 12.4688
1 15.6128 14.1404 12.4984
1 2.72651 6.68492 12.445
1 7.01972 4.20778 12.4596
1 11.3285 1.71855 12.475
1 15.8515 19.1055 12.5538
1 2.72624 11.6537 12.4554
1 7.02169 9.17143 12.4582
1 11.3193 6.68534 12.4743
1 15.6177 4.21494 12.4518
1 2.69422 16.6681 12.4812
1 7.01909 14.1339 12.4613
1 11.3154 11.6495 12.4738
1 15.6118 9.16862 12.4678
1 1.39684 3.91654 12.4828
1 5.71579 1.49066 12.4918
1 10.0285 18.8554 12.457
1 14.3091 16.3765 12.4539
1 1.43049 8.93304 12.4601
1 5.72347 6.45069 12.4567
1 10.0242 3.96808 12.4666
1 14.3326 1.46739 12.4803
1 1.43552 13.9099 12.4692
1 5.72589 11.4186 12.4549
1 10.0194 8.93343 12.4659
1 14.3109 6.45159 12.4727
1 1.29649 19.0535 12.5512
1 5.7264 16.3796 12.4614
1 10.0196 13.8993 12.4642
1 14.3155 11.4183 12.4725
1 0.0325598 1.51401 12.5561
1 4.4328 19.0802 12.4472
1 8.7278 16.6101 12.4637
1 13.0231 14.1274 12.4715
1 0.13223 6.68828 12.4654
1 4.41504 4.20549 12.4676
1 8.72559 1.7274 12.4689
1 13.0899 19.0855 12.4905
1 0.137316 11.6532 12.4606
1 4.42696 9.17013 12.4514
1 8.72171 6.68807 12.4647
1 13.0294 4.2009 12.5028
1 0.154329 16.6355 12.4746
1 4.42618 14.1343 12.4446
1 8.72283 11.6523 12.4609
1 13.0171 9.17092 12.4731
1 0.144484 3.25306 5.66048
1 4.43302 0.747147 5.66138
1 8.72537 18.1086 5.67135
1 13.0166 15.623 5.68503
1 0.136217 8.18498 5.66244
1 4.43176 5.70776 5.65212
1 8.72877 3.22725 5.66948
1 13.0231 0.75105 5.67661
1 0.127242 13.145 5.67175
1 4.42903 10.6652 5.65393
1 8.72238 8.18547 5.66332
1 13.0183 5.70843 5.67394
1 0.12955 18.1088 5.76918
1 4.42394 15.6233 5.66317
1 8.72187 13.1477 5.66649
1 13.0144 10.6638 5.67792
1 1.43131 0.974504 5.76563
1 5.7293 18.3396 5.67425
1 10.0218 15.8646 5.66661
1 14.3121 13.3796 5.67314
1 1.43692 5.93713 5.66445
1 5.72967 3.45321 5.66656
1 10.023 0.981525 5.66704
1 14.2913 18.3338 5.66488
1 1.43044 10.9007 5.66351
1 5.72814 8.41919 5.65841
1 10.0186 5.93951 5.67054
1 14.3155 3.46458 5.66857
1 1.4291 15.86 5.66951
1 5.72588 13.3819 5.66013
1 10.0181 10.9026 5.66923
1 14.3115 8.41942 5.67583
1 2.72842 3.22502 5.66715
1 7.02365 0.749146 5.6655
1 11.3187 18.1117 5.66946
1 15.6094 15.6228 5.66591
1 2.72885 8.18499 5.6577
1 7.02152 5.7033 5.66591
1 11.3216 3.23357 5.67589
1 15.6183 0.752124 5.76855
1 2.72926 13.143 5.65278
1 7.02297 10.6656 5.66135
1 11.3137 8.18861 5.6803
1 15.609 5.71133 5.68238
1 2.74504 18.0857 5.65669
1 7.02161 15.6271 5.65971
1 11.3172 13.1467 5.67641
1 15.61 10.6646 5.67215
2 4.45315e-05 19.8351 5.24082
2 4.31898 17.342 4.86918
2 8.59091 14.8701 4.86813
2 12.8709 12.3846 4.88184
2 17.175 4.99031 4.87358
2 4.31013 2.4831 4.87784
2 8.59706 0.000107872 4.87365
2 12.8641 17.3383 4.87764
2 17.1734 9.92014 4.86904
2 4.30134 7.44585 4.85774
2 8.59075 4.96335 4.87099
2 12.8764 2.49401 4.88782
2 17.1718 14.8591 4.88231
2 4.29997 12.3893 4.85792
2 8.58856 9.91693 4.86764
2 12.8718 7.45292 4.88308
2 17.176 0.000588601 2.51311
2 4.32689 17.3407 1.93687
2 8.58724 14.8706 1.93393
2 12.8734 12.3844 1.94929
2 17.176 4.99844 1.94042
2 4.31572 2.49761 1.94551
2 8.59721 19.8344 1.94229
2 12.856 17.3314 1.94488
2 0.00267567 9.91818 1.93387
2 4.29947 7.44678 1.92359
2 8.58758 4.96468 1.93569
2 12.8612 2.49149 1.95509
2 0.00460773 14.8469 1.94936
2 4.30103 12.3905 1.92404
2 8.58399 9.91731 1.93291
2 12.8741 7.4514 1.95039
2 0.00172581 9.69249e-05 8.49483
2 4.30584 17.3418 8.72017
2 8.58748 14.8731 8.72826
2 12.8754 12.3888 8.74122
2 0.00557529 4.97742 8.72361
2 4.32196 2.50188 8.73218
2 8.58697 -1.61598e-05 8.73132
2 12.8686 17.3502 8.72855
2 0.00349457 9.91315 8.72824
2 4.30501 7.44875 8.71774
2 8.5869 4.96743 8.73046
2 12.8538 2.49719 8.74219
2 0.00408798 14.8372 8.73552
2 4.30232 12.3838 8.71775
2 8.58679 9.92139 8.7301
2 12.8771 7.44795 8.74254
2 0.00341026 19.8352 11.1918
2 4.31681 17.346 11.6545
2 8.58991 14.8729 11.6639
2 12.8765 12.3852 11.6751
2 17.174 4.98426 11.6581
2 4.32881 2.49707 11.6652
2 8.59142 0.00176753 11.663
2 12.8671 17.3389 11.6627
2 17.1742 9.91469 11.6636
2 4.30126 7.44821 11.6507
2 8.59138 4.96607 11.6647
2 12.8572 2.50128 11.6747
2 17.1741 14.8363 11.6688
2 4.30006 12.3884 11.6508
2 8.58951 9.92094 11.6647
2 12.8731 7.44646 11.6759
2 2.89772 0.0160443 9.3804
2 7.16364 17.3524 9.39559
2 11.4462 14.8692 9.40287
2 15.7364 12.3776 9.4065
2 2.8784 4.98182 9.38618
2 7.17149 2.48389 9.40062
2 11.4335 0.00324433 9.39717
2 15.745 17.3155 9.38689
2 2.86561 9.91496 9.38896
2 7.16274 7.44542 9.39374
2 11.4422 4.9762 9.40916
2 15.7158 2.50211 9.38719
2 2.87445 14.8504 9.38656
2 7.16152 12.3971 9.39361
2 11.4453 9.91827 9.40908
2 15.7409 7.44566 9.40204
2 2.91273 19.8068 6.46549
2 7.16276 17.3473 6.46382
2 11.4409 14.8694 6.47152
2 15.7439 12.3844 6.47151
2 2.87809 4.98147 6.45343
2 7.16442 2.48582 6.46558
2 11.4336 0.000510194 6.46525
2 15.6977 17.3242 6.47211
2 2.87003 9.9173 6.45427
2 7.15961 7.44295 6.45917
2 11.4418 4.96994 6.47355
2 15.7474 2.53973 6.47133
2 2.8748 14.8514 6.45434
2 7.15924 12.3917 6.45939
2 11.4441 9.91994 6.47542
2 15.7474 7.45258 6.46957
2 2.9683 0.0209633 13.2231
2 7.16423 17.3506 13.2585
2 11.443 14.8671 13.2649
2 15.7499 12.3788 13.2702
2 2.88328 4.99542 13.2544
2 7.16727 2.49195 13.266
2 11.4186 19.8342 13.2641
2 15.7141 17.2524 13.2298
2 2.86822 9.91825 13.2518
2 7.15737 7.4441 13.2566
2 11.4367 4.9667 13.2736
2 15.678 2.562 13.2306
2 2.88405 14.8408 13.2545
2 7.15804 12.3945 13.2556
2 11.4458 9.91776 13.27
2 15.7453 7.44884 13.2647
2 2.9235 19.816 2.63084
2 7.17267 17.3531 2.60583
2 11.4423 14.8587 2.61268
2 15.7373 12.3846 2.61185
2 2.87149 4.9701 2.60789
2 7.17004 2.48112 2.60689
2 11.4499 0.00183319 2.61832
2 15.6983 17.3095 2.63861
2 2.86518 9.91985 2.59382
2 7.15925 7.44064 2.59793
2 11.4458 4.97196 2.61412
2 15.7339 2.5473 2.63953
2 2.86754 14.8642 2.60868
2 7.16053 12.3934 2.59749
2 11.4413 9.91712 2.61215
2 15.7354 7.45547 2.61192
2 1.4584 2.57735 0.38942
2 5.7701 0.00382355 0.345319
2 10.019 17.3456 0.338028
2 14.2948 14.8333 0.351601
2 1.42707 7.45113 0.331161
2 5.73488 4.96634 0.335927
2 10.0197 2.48507 0.345572
2 14.2219 19.8099 0.397087
2 1.43172 12.3869 0.336029
2 5.72845 9.91859 0.328243
2 10.0159 7.44365 0.343133
2 14.289 4.99814 0.353163
2 1.50235 17.2825 0.389307
2 5.73825 14.8735 0.33002
2 10.0169 12.392 0.340875
2 14.3061 9.91612 0.346515
2 1.49024 2.52732 10.9748
2 5.73846 19.8318 10.9921
2 10.0136 17.3535 10.997
2 14.3029 14.8607 10.9992
2 1.43818 7.44716 10.9896
2 5.73605 4.97544 10.9877
2 10.0099 2.4851 10.998
2 14.2509 0.0253878 10.9837
2 1.43972 12.3788 10.9884
2 5.73211 9.91912 10.9861
2 10.0139 7.44537 11.0013
2 14.3099 4.97745 11.0001
2 1.44343 17.2804 10.9749
2 5.73176 14.8669 10.9895
2 10.0167 12.3967 10.9996
2 14.3117 9.91377 11.0045
2 1.43625 2.51459 4.23813
2 5.75028 19.8326 4.20994
2 10.0123 17.3503 4.20174
2 14.2987 14.8503 4.21777
2 1.43905 7.45478 4.19293
2 5.7328 4.96661 4.19606
2 10.0181 2.48546 4.20701
2 14.2868 19.8235 4.24572
2 1.43577 12.3878 4.19679
2 5.72989 9.9181 4.18933
2 10.0128 7.44156 4.20568
2 14.3026 4.98805 4.21906
2 1.45776 17.3345 4.23836
2 5.73521 14.8631 4.19266
2 10.0129 12.3913 4.20414
2 14.3104 9.91838 4.20972
2 1.47872 2.50261 7.15454
2 5.75031 0.00129076 7.14238
2 10.0157 17.3512 7.13575
2 14.3013 14.8503 7.15067
2 1.43352 7.44813 7.12726
2 5.73816 4.96735 7.12737
2 10.0167 2.48793 7.13824
2 14.2762 0.0301146 7.16204
2 1.43003 12.3817 7.12913
2 5.73124 9.91731 7.12358
2 10.0177 7.44581 7.13976
2 14.2999 4.98458 7.15114
2 1.42693 17.3026 7.15577
2 5.73415 14.8671 7.12751
2 10.0173 12.3949 7.13851
2 14.3064 9.91658 7.14393
2 0.00188149 19.8348 0.0580418
