LAMMPS (28 Jun 2014)
Processor partition = 14
Reading data file ...
  orthogonal box = (0 0 0) to (17.1781 19.8356 13.5931)
  1 by 1 by 1 MPI processor grid
  reading atoms ...
  481 atoms
288 atoms in group oxygen
193 atoms in group chromium
WARNING: Resetting reneighboring criteria during minimization (../min.cpp:168)
PPPM initialization ...
WARNING: System is not charge neutral, net charge = 3 (../kspace.cpp:278)
  G vector (1/distance) = 0.315057
  grid = 18 18 15
  stencil order = 5
  estimated absolute RMS force accuracy = 0.00121672
  estimated relative force accuracy = 8.44963e-05
  using double precision FFTs
  3d grid and FFT values/proc = 13750 4860
Setting up minimization ...
Memory usage per processor = 4.77731 Mbytes
Step PotEng Pxx Pyy Pzz Pxy Pxz Pyz Lx Ly Lz Temp 
       0   -14839.008   -126772.55   -127389.47    -20322.75   -1.0274924    11.905028    4.1429703      17.1781      19.8356     13.59308            0 
     100   -14915.903   -79484.825   -79599.857   -173408.64    5.3827149   -35.030908   -16.920371      17.1781      19.8356     13.59308   0.19631111 
     200   -14915.914   -79444.446   -79473.203   -173077.13    14.888266   -120.53778   -11.633398      17.1781      19.8356     13.59308 0.0034453087 
     300   -14915.888   -79381.422   -79340.422   -172969.36    17.307871   -172.16117   -2.2404997      17.1781      19.8356     13.59308 7.9272789e-05 
     400    -14915.86   -79291.619    -79235.09    -172896.7    18.176624   -186.17372  -0.06025438      17.1781      19.8356     13.59308 0.0019780191 
     500   -14915.842   -79231.994   -79172.991   -172859.11    18.207552   -188.09007   0.86036187      17.1781      19.8356     13.59308 6.2801535e-05 
     600   -14915.825   -79176.211   -79117.277   -172830.49    18.008976    -188.2794     1.808517      17.1781      19.8356     13.59308 0.0013567857 
     700   -14915.813   -79136.742   -79077.739   -172814.55    17.796303   -188.26399    1.9232074      17.1781      19.8356     13.59308 1.7906618e-06 
     800   -14915.806   -79113.955   -79056.486   -172805.67    17.514226   -187.83248    2.1049581      17.1781      19.8356     13.59308 4.6151818e-05 
     900   -14915.797   -79084.444   -79026.912   -172794.99    17.378465   -187.84142    2.6926573      17.1781      19.8356     13.59308 7.1167427e-07 
    1000    -14915.79   -79062.085   -79004.833    -172786.9    17.059992   -187.33504    2.8972695      17.1781      19.8356     13.59308 0.00034234926 
Loop time of 66.5545 on 1 procs for 1000 steps with 481 atoms

Minimization stats:
  Stopping criterion = max iterations
  Energy initial, next-to-last, final = 
        -14839.0078053     -14915.7900906     -14915.7896885
  Force two-norm initial, final = 82.4535 0.00700615
  Force max component initial, final = 10.7411 0.00449732
  Final line search alpha, max atom move = 0 0
  Iterations, force evaluations = 1000 1000

Pair  time (%) = 20.9059 (31.4118)
Kspce time (%) = 2.65612 (3.99089)
Neigh time (%) = 0 (0)
Comm  time (%) = 0.094861 (0.142531)
Outpt time (%) = 0.000280857 (0.000421996)
Other time (%) = 42.8973 (64.4544)

Nlocal:    481 ave 481 max 481 min
Histogram: 1 0 0 0 0 0 0 0 0 0
Nghost:    6497 ave 6497 max 6497 min
Histogram: 1 0 0 0 0 0 0 0 0 0
Neighs:    180533 ave 180533 max 180533 min
Histogram: 1 0 0 0 0 0 0 0 0 0

Total # of neighbors = 180533
Ave neighs/atom = 375.328
Neighbor list builds = 0
Dangerous builds = 0
WARNING: Resetting reneighboring criteria during minimization (../min.cpp:168)
Setting up minimization ...
Memory usage per processor = 4.77731 Mbytes
Step PotEng Pxx Pyy Pzz Pxy Pxz Pyz Lx Ly Lz Temp 
    1000    -14915.79   -79062.085   -79004.833    -172786.9    17.059992   -187.33504    2.8972695      17.1781      19.8356     13.59308            0 
    1100   -14915.787   -79053.399   -78996.384    -172784.3    16.990963   -187.18475    2.9392084      17.1781      19.8356     13.59308 5.5403705e-06 
    1200   -14915.784   -79042.565   -78985.478   -172780.62    16.650188   -187.10899    2.5773918      17.1781      19.8356     13.59308 4.0698936e-05 
    1300   -14915.781   -79034.572   -78977.413   -172778.03    16.560445   -187.00877    2.8834741      17.1781      19.8356     13.59308 2.6351337e-05 
    1400   -14915.779   -79029.329   -78972.305   -172776.51    16.506975   -186.94551    2.9212978      17.1781      19.8356     13.59308 1.1990324e-06 
    1500   -14915.778   -79024.241   -78967.674   -172774.96    16.722024   -186.65591    2.9021071      17.1781      19.8356     13.59308 2.9956653e-08 
    1600   -14915.777   -79022.009   -78965.468   -172774.36    16.686495   -186.62612    2.9029954      17.1781      19.8356     13.59308 6.637818e-07 
    1700   -14915.776   -79018.919   -78962.329   -172773.43    16.711955   -186.52767    3.0427118      17.1781      19.8356     13.59308 5.3646317e-07 
    1726   -14915.776   -79018.578   -78962.002   -172773.33    16.712849   -186.52248    3.0461959      17.1781      19.8356     13.59308 6.3148844e-07 
Loop time of 38.5626 on 1 procs for 726 steps with 481 atoms

Minimization stats:
  Stopping criterion = force tolerance
  Energy initial, next-to-last, final = 
        -14915.7896885     -14915.7761245     -14915.7760996
  Force two-norm initial, final = 0.00700615 0.000839394
  Force max component initial, final = 0.00449732 0.00054061
  Final line search alpha, max atom move = 0 0
  Iterations, force evaluations = 726 726

Pair  time (%) = 18.4224 (47.7727)
Kspce time (%) = 2.63021 (6.82062)
Neigh time (%) = 0 (0)
Comm  time (%) = 0.0510156 (0.132293)
Outpt time (%) = 0.00024724 (0.00064114)
Other time (%) = 17.4587 (45.2738)

Nlocal:    481 ave 481 max 481 min
Histogram: 1 0 0 0 0 0 0 0 0 0
Nghost:    6497 ave 6497 max 6497 min
Histogram: 1 0 0 0 0 0 0 0 0 0
Neighs:    181998 ave 181998 max 181998 min
Histogram: 1 0 0 0 0 0 0 0 0 0

Total # of neighbors = 181998
Ave neighs/atom = 378.374
Neighbor list builds = 0
Dangerous builds = 0
