LAMMPS (28 Jun 2014)
Running on 20 partitions of processors
Step MaxReplicaForce MaxAtomForce GradV0 GradV1 GradVc EBF EBR RDT RD1 PE1 RD2 PE2 ... RDN PEN
0    92.744715     15.11362    92.720119    92.744715    92.744715  0.011695305            0        4.145            0   -14735.505  0.052631579    -14737.18   0.10526316   -14737.875   0.15789474   -14737.942   0.21052632   -14737.712   0.26315789   -14737.438   0.31578947   -14737.242   0.36842105   -14737.131   0.42105263   -14737.074   0.47368421   -14737.046   0.52631579   -14737.046   0.57894737   -14737.072   0.63157895   -14737.128   0.68421053   -14737.237   0.73684211   -14737.433   0.78947368   -14737.706   0.84210526   -14737.935   0.89473684   -14737.866   0.94736842    -14737.17            1   -14735.494 
100   0.41942071  0.079761313     0.365973   0.36610301   0.45535698    1.0985362     1.098568    4.9209143            0   -14820.988  0.045855976   -14820.893  0.092516916   -14820.593   0.14062498   -14820.229   0.19055519   -14819.955   0.24236903   -14819.889   0.29603852   -14820.081   0.35163017   -14820.473   0.40935453   -14820.886   0.46937187   -14821.104   0.53070342   -14821.103   0.59071738   -14820.886   0.64843726   -14820.473   0.70402319   -14820.081   0.75768449   -14819.889   0.80948781   -14819.955   0.85940667   -14820.229   0.90750358   -14820.593   0.95415479   -14820.893            1   -14820.988 
200   0.10509345   0.04293747  0.070046689   0.07004446    0.5111506    1.0738551    1.0738248     4.931366            0   -14820.993  0.049823722   -14820.869   0.09997634   -14820.528   0.15070859   -14820.156   0.20220624   -14819.919    0.2545803    -14819.92   0.30786974    -14820.17   0.36202351   -14820.572   0.41689643   -14820.941   0.47226434   -14821.112   0.52779944   -14821.112   0.58316561    -14820.94   0.63803515   -14820.572   0.69218389   -14820.169    0.7454668    -14819.92     0.797833   -14819.919   0.84932174   -14820.156   0.90004433   -14820.528   0.95018677   -14820.869            1   -14820.993 
300  0.034667081  0.016568882  0.014775194  0.014768605   0.39885702    1.0867265    1.0867219    4.9353355            0   -14820.994  0.051607459   -14820.859   0.10333817     -14820.5   0.15527769   -14820.125    0.2075018   -14819.907   0.26005122   -14819.937   0.31293585   -14820.207   0.36612759   -14820.607   0.41957164   -14820.957   0.47318642   -14821.114   0.52686357   -14821.114   0.58047698   -14820.956   0.63391832   -14820.607    0.6871061   -14820.206   0.73998569   -14819.936   0.79252906   -14819.907   0.84474624   -14820.126   0.89667819     -14820.5   0.94840081   -14820.859            1   -14820.994 
400 0.0076537297  0.005389429 0.0071114501 0.0071078073   0.35687712    1.0908841    1.0908858    4.9367203            0   -14820.994  0.052295937   -14820.854   0.10463346   -14820.489   0.15704097   -14820.114   0.20954131   -14819.903   0.26214731   -14819.944   0.31486181   -14820.221   0.36767637   -14820.621   0.42057373   -14820.963   0.47352855   -14821.115   0.52650853   -14821.114   0.57946236   -14820.962   0.63235777   -14820.621   0.68516944   -14820.221   0.73788019   -14819.944   0.79048166   -14819.903   0.84297686   -14820.114    0.8953787    -14820.49   0.94771023   -14820.855            1   -14820.994 
500  0.048013383  0.003911732 0.0033701157  0.003368097   0.34175567    1.0920517    1.0920283     4.937632            0   -14820.994  0.052537288   -14820.853   0.10509404   -14820.486   0.15766498    -14820.11   0.21026164   -14819.902   0.26288628   -14819.946   0.31554009   -14820.227   0.36822035   -14820.626   0.42092653   -14820.965   0.47364731   -14821.115   0.52637863   -14821.115   0.57909872   -14820.965   0.63180348   -14820.625   0.68448176   -14820.226   0.73713296   -14819.946   0.78975443   -14819.902   0.84234748    -14820.11   0.89491448   -14820.486   0.94746697   -14820.853            1   -14820.994 
600 0.0036659881 0.00074690666 0.0020204685  0.002019073   0.33814437    1.0924677    1.0924904    4.9380188            0   -14820.994  0.052589178   -14820.852    0.1051842   -14820.485   0.15778797   -14820.109   0.21040331   -14819.901   0.26303169   -14819.947   0.31567372   -14820.228   0.36832863   -14820.627   0.42099494   -14820.965      0.47367   -14821.115   0.52635026   -14821.115   0.57902479   -14820.965   0.63169004   -14820.627   0.68434338   -14820.228   0.73698336   -14819.947   0.78960928   -14819.901   0.84222179   -14820.109   0.89482247   -14820.485    0.9474142   -14820.852            1   -14820.994 
700  0.001047205 0.0003202577  0.001047205 0.0010464747   0.33648333    1.0926213     1.092605    4.9383582            0   -14820.994  0.052614601   -14820.852   0.10523145   -14820.484   0.15785203   -14820.108   0.21047717   -14819.901   0.26310756   -14819.947    0.3157435   -14820.228   0.36838485   -14820.628   0.42103096   -14820.966   0.47368108   -14821.115   0.52633362   -14821.115   0.57898336   -14820.966    0.6316287   -14820.627    0.6842689   -14820.228   0.73690336   -14819.947   0.78953196   -14819.901   0.84215505   -14820.108   0.89477338   -14820.484   0.94738785   -14820.852            1   -14820.994 
720 0.00085818084 0.00025278878 0.00085818084 0.00085742689   0.33600869     1.092624    1.0925891    4.9384278            0   -14820.994  0.052618367   -14820.852   0.10523861   -14820.484   0.15786163   -14820.108   0.21048823   -14819.901   0.26311892   -14819.947   0.31575396   -14820.228   0.36839322   -14820.628   0.42103633   -14820.966   0.47368252   -14821.115   0.52633081   -14821.115   0.57897668   -14820.966   0.63161908   -14820.628    0.6842573   -14820.228   0.73689099   -14819.947   0.78952005   -14819.901   0.84214479   -14820.108   0.89476577   -14820.484   0.94738386   -14820.852            1   -14820.994 
Climbing replica = 5
Step MaxReplicaForce MaxAtomForce GradV0 GradV1 GradVc EBF EBR RDT RD1 PE1 RD2 PE2 ... RDN PEN
720   0.33600869   0.28448091 0.00085818084 0.00085742689   0.33600869     1.092624    1.0925891    4.9384278            0   -14820.994  0.052618367   -14820.852   0.10523861   -14820.484   0.15786163   -14820.108   0.21048823   -14819.901   0.26311892   -14819.947   0.31575396   -14820.228   0.36839322   -14820.628   0.42103633   -14820.966   0.47368252   -14821.115   0.52633081   -14821.115   0.57897668   -14820.966   0.63161908   -14820.628    0.6842573   -14820.228   0.73689099   -14819.947   0.78952005   -14819.901   0.84214479   -14820.108   0.89476577   -14820.484   0.94738386   -14820.852            1   -14820.994 
820   0.06035021  0.019545761 0.00047537878 0.0004748837  0.017239369    1.1066982    1.1067421    4.9408969            0   -14820.994  0.057157416   -14820.824   0.11419783   -14820.411   0.17102275   -14820.033   0.22766186   -14819.887   0.27721972   -14820.005   0.32684068   -14820.313   0.37661559   -14820.693   0.42676379   -14820.994   0.47738561   -14821.119   0.52856891   -14821.112   0.58022054   -14820.961   0.63226039   -14820.624   0.68457518   -14820.227   0.73705511   -14819.947   0.78961475   -14819.901   0.84220448   -14820.108   0.89480226   -14820.484   0.94740181   -14820.852            1   -14820.994 
920  0.013348145 0.0089932838 0.00030854276 0.00032608624 0.0013976653    1.1066646    1.1066888    4.9422715            0   -14820.994  0.056787799   -14820.826   0.11357898   -14820.416   0.17037382   -14820.036   0.22717131   -14819.887   0.27755713   -14820.007   0.32800879   -14820.322   0.37858095   -14820.708   0.42933061   -14821.006   0.48029161   -14821.122   0.53148671   -14821.109   0.58288114   -14820.948   0.63448352   -14820.608   0.68628657   -14820.216   0.73827429   -14819.943   0.79042266   -14819.902   0.84270197   -14820.111   0.89507982   -14820.486   0.94752337   -14820.853            1   -14820.994 
1020  0.011923395  0.005497995  0.000203061 0.00019205886 0.00062310706    1.1066185    1.1065883     4.944802            0   -14820.994   0.05676147   -14820.826   0.11352417   -14820.415   0.17028775   -14820.036   0.22705241   -14819.887   0.27791249    -14820.01   0.32880848   -14820.329    0.3797743   -14820.719   0.43083679   -14821.013     0.482024   -14821.124   0.53334388   -14821.107   0.58477229   -14820.939   0.63631984   -14820.595   0.68798903   -14820.205   0.73977664   -14819.939   0.79167379   -14819.904    0.8436657   -14820.117     0.895733   -14820.491    0.9478527   -14820.855            1   -14820.994 
1120 0.0057282615 0.0029249466 0.00010179438 0.00014623891 0.00028939771    1.1066434    1.1066107    4.9473977            0   -14820.994  0.056733274   -14820.826   0.11346686   -14820.415   0.17020076   -14820.036   0.22693496   -14819.887   0.27810542   -14820.011   0.32929649   -14820.334   0.38052682   -14820.726   0.43181362   -14821.018   0.48317205   -14821.125   0.53460554   -14821.105   0.58609255   -14820.934   0.63764007   -14820.586   0.68925112   -14820.198   0.74092521   -14819.936   0.79265856   -14819.906   0.84444396   -14820.121   0.89627123   -14820.495   0.94812782   -14820.856            1   -14820.994 
1220 0.0033446644 0.0017568673 4.8884036e-05 5.1698981e-05 0.00015185325    1.1065997    1.1065957    4.9492973            0   -14820.994  0.056712127   -14820.826   0.11342433   -14820.415   0.17013666   -14820.036   0.22684912   -14819.887   0.27818096   -14820.012   0.32952537   -14820.337   0.38089407   -14820.729   0.43229796    -14821.02   0.48374582   -14821.125   0.53523943   -14821.105   0.58675982   -14820.931   0.63831181   -14820.582   0.68989745   -14820.194   0.74151702   -14819.935   0.79316878   -14819.907   0.84484902   -14820.123    0.8965523   -14820.497   0.94827184   -14820.857            1   -14820.994 
1320 0.0073067792 0.0010290144 4.637786e-05 4.7720852e-05 8.6014132e-05    1.1065692    1.1065869    4.9508861            0   -14820.994  0.056694241   -14820.826   0.11338847   -14820.415   0.17008278   -14820.036   0.22677712   -14819.887   0.27821213   -14820.013   0.32965469   -14820.339   0.38111152   -14820.732   0.43258998   -14821.022   0.48409363   -14821.125    0.5356236   -14821.104   0.58716513   -14820.929   0.63872075    -14820.58   0.69029179   -14820.192   0.74187874   -14819.934   0.79348111   -14819.907   0.84509729   -14820.125   0.89672475   -14820.498   0.94836024   -14820.857            1   -14820.994 
1420 0.0026017957 0.00060663615 2.8071959e-05 2.7567377e-05 4.5793262e-05     1.106603    1.1065866    4.9520236            0   -14820.994  0.056681312   -14820.826   0.11336265   -14820.415   0.17004402   -14820.036   0.22672541   -14819.887   0.27821832   -14820.013   0.32971562    -14820.34   0.38122156   -14820.733   0.43273938   -14821.023   0.48427298   -14821.125   0.53582145   -14821.104   0.58737353   -14820.929   0.63893088   -14820.579   0.69049454   -14820.191   0.74206499   -14819.933   0.79364214   -14819.907   0.84522546   -14820.125   0.89681388   -14820.498   0.94840596   -14820.857            1   -14820.994 
1518 0.00092555392 0.00036887351 2.5701635e-05 2.4061365e-05 3.2850891e-05    1.1066084    1.1065525    4.9528354            0   -14820.994  0.056672105   -14820.826   0.11334421   -14820.415   0.17001632   -14820.036   0.22668846   -14819.887   0.27821347   -14820.013   0.32974111   -14820.341   0.38127377   -14820.734   0.43281358   -14821.023   0.48436264   -14821.125   0.53592017   -14821.104    0.5874776   -14820.929   0.63903606   -14820.578   0.69059629   -14820.191    0.7421586   -14819.933   0.79372326   -14819.908   0.84529012   -14820.125   0.89685888   -14820.499   0.94842907   -14820.858            1   -14820.994 
