479
Atoms. Timestep: 0
1 1.314 19.0766 3.398
1 5.609 16.5976 3.398
1 9.903 14.1176 3.398
1 14.198 11.6386 3.398
1 1.314 4.2 3.398
1 5.609 1.721 3.398
1 9.903 19.0766 3.398
1 14.198 16.5976 3.398
1 1.314 9.159 3.398
1 5.609 6.68 3.398
1 9.903 4.2 3.398
1 14.198 1.721 3.398
1 1.314 14.118 3.398
1 5.609 11.639 3.398
1 9.903 9.159 3.398
1 14.198 6.68 3.398
1 0 1.517 3.398
1 4.295 18.8736 3.398
1 8.589 16.3946 3.398
1 12.884 13.9146 3.398
1 0 6.476 3.398
1 4.295 3.997 3.398
1 8.589 1.517 3.398
1 12.884 18.8736 3.398
1 0 11.435 3.398
1 4.295 8.956 3.398
1 8.589 6.476 3.398
1 12.884 3.997 3.398
1 0 16.394 3.398
1 4.295 13.915 3.398
1 8.589 11.435 3.398
1 12.884 8.956 3.398
1 2.98 1.721 3.398
1 7.275 19.0766 3.398
1 11.569 16.5976 3.398
1 15.864 14.1176 3.398
1 2.98 6.68 3.398
1 7.275 4.2 3.398
1 11.569 1.721 3.398
1 15.864 19.0766 3.398
1 2.98 11.639 3.398
1 7.275 9.159 3.398
1 11.569 6.68 3.398
1 15.864 4.2 3.398
1 2.98 16.597 3.398
1 7.275 14.118 3.398
1 11.569 11.639 3.398
1 15.864 9.159 3.398
1 2.98 18.1146 10.195
1 7.275 15.6356 10.195
1 11.569 13.1556 10.195
1 15.864 10.6766 10.195
1 2.98 3.238 10.195
1 7.275 0.759 10.195
1 11.569 18.1146 10.195
1 15.864 15.6356 10.195
1 2.98 8.197 10.195
1 7.275 5.718 10.195
1 11.569 3.238 10.195
1 15.864 0.759 10.195
1 2.98 13.156 10.195
1 7.275 10.677 10.195
1 11.569 8.197 10.195
1 15.864 5.718 10.195
1 0 3.441 10.195
1 4.295 0.962 10.195
1 8.589 18.3186 10.195
1 12.884 15.8386 10.195
1 0 8.4 10.195
1 4.295 5.921 10.195
1 8.589 3.441 10.195
1 12.884 0.962 10.195
1 0 13.359 10.195
1 4.295 10.88 10.195
1 8.589 8.4 10.195
1 12.884 5.921 10.195
1 0 18.318 10.195
1 4.295 15.839 10.195
1 8.589 13.359 10.195
1 12.884 10.88 10.195
1 1.314 0.759 10.195
1 5.609 18.1146 10.195
1 9.903 15.6356 10.195
1 14.198 13.1556 10.195
1 1.314 5.718 10.195
1 5.609 3.238 10.195
1 9.903 0.759 10.195
1 14.198 18.1146 10.195
1 1.314 10.677 10.195
1 5.609 8.197 10.195
1 9.903 5.718 10.195
1 14.198 3.238 10.195
1 1.314 15.635 10.195
1 5.609 13.156 10.195
1 9.903 10.677 10.195
1 14.198 8.197 10.195
1 4.177 19.0766 7.929
1 8.472 16.5976 7.929
1 12.766 14.1176 7.929
1 17.061 11.6386 7.929
1 4.177 4.2 7.929
1 8.472 1.721 7.929
1 12.766 19.0766 7.929
1 17.061 16.5976 7.929
1 4.177 9.159 7.929
1 8.472 6.68 7.929
1 12.766 4.2 7.929
1 17.061 1.721 7.929
1 4.177 14.118 7.929
1 8.472 11.639 7.929
1 12.766 9.159 7.929
1 17.061 6.68 7.929
1 2.863 1.517 7.929
1 7.158 18.8736 7.929
1 11.452 16.3946 7.929
1 15.747 13.9146 7.929
1 2.863 6.476 7.929
1 7.158 3.997 7.929
1 11.452 1.517 7.929
1 15.747 18.8736 7.929
1 2.863 11.435 7.929
1 7.158 8.956 7.929
1 11.452 6.476 7.929
1 15.747 3.997 7.929
1 2.863 16.394 7.929
1 7.158 13.915 7.929
1 11.452 11.435 7.929
1 15.747 8.956 7.929
1 1.549 19.0766 7.929
1 5.843 16.5976 7.929
1 10.138 14.1176 7.929
1 14.432 11.6386 7.929
1 1.549 4.2 7.929
1 5.843 1.721 7.929
1 10.138 19.0766 7.929
1 14.432 16.5976 7.929
1 1.549 9.159 7.929
1 5.843 6.68 7.929
1 10.138 4.2 7.929
1 14.432 1.721 7.929
1 1.549 14.118 7.929
1 5.843 11.639 7.929
1 10.138 9.159 7.929
1 14.432 6.68 7.929
1 1.549 0.759 1.133
1 5.843 18.1146 1.133
1 10.138 15.6356 1.133
1 14.432 13.1556 1.133
1 1.549 5.718 1.133
1 5.843 3.238 1.133
1 10.138 0.759 1.133
1 14.432 18.1146 1.133
1 1.549 10.677 1.133
1 5.843 8.197 1.133
1 10.138 5.718 1.133
1 14.432 3.238 1.133
1 1.549 15.635 1.133
1 5.843 13.156 1.133
1 10.138 10.677 1.133
1 14.432 8.197 1.133
1 2.863 18.3186 1.133
1 7.158 15.8386 1.133
1 11.452 13.3596 1.133
1 15.747 10.8796 1.133
1 2.863 3.441 1.133
1 7.158 0.962 1.133
1 11.452 18.3186 1.133
1 15.747 15.8386 1.133
1 2.863 8.4 1.133
1 7.158 5.921 1.133
1 11.452 3.441 1.133
1 15.747 0.962 1.133
1 2.863 13.359 1.133
1 7.158 10.88 1.133
1 11.452 8.4 1.133
1 15.747 5.921 1.133
1 4.177 0.759 1.133
1 8.472 18.1146 1.133
1 12.766 15.6356 1.133
1 17.061 13.1556 1.133
1 4.177 5.718 1.133
1 8.472 3.238 1.133
1 12.766 0.759 1.133
1 17.061 18.1146 1.133
1 4.177 10.677 1.133
1 8.472 8.197 1.133
1 12.766 5.718 1.133
1 17.061 3.238 1.133
1 4.177 15.635 1.133
1 8.472 13.156 1.133
1 12.766 10.677 1.133
1 17.061 8.197 1.133
1 2.746 1.721 12.46
1 7.04 19.0766 12.46
1 11.335 16.5976 12.46
1 15.629 14.1176 12.46
1 2.746 6.68 12.46
1 7.04 4.2 12.46
1 11.335 1.721 12.46
1 15.629 19.0766 12.46
1 2.746 11.639 12.46
1 7.04 9.159 12.46
1 11.335 6.68 12.46
1 15.629 4.2 12.46
1 2.746 16.597 12.46
1 7.04 14.118 12.46
1 11.335 11.639 12.46
1 15.629 9.159 12.46
1 1.432 3.997 12.46
1 5.726 1.517 12.46
1 10.021 18.8736 12.46
1 14.315 16.3946 12.46
1 1.432 8.956 12.46
1 5.726 6.476 12.46
1 10.021 3.997 12.46
1 14.315 1.517 12.46
1 1.432 13.915 12.46
1 5.726 11.435 12.46
1 10.021 8.956 12.46
1 14.315 6.476 12.46
1 1.432 18.874 12.46
1 5.726 16.394 12.46
1 10.021 13.915 12.46
1 14.315 11.435 12.46
1 0.117 1.721 12.46
1 4.412 19.0766 12.46
1 8.706 16.5976 12.46
1 13.001 14.1176 12.46
1 0.117 6.68 12.46
1 4.412 4.2 12.46
1 8.706 1.721 12.46
1 13.001 19.0766 12.46
1 0.117 11.639 12.46
1 4.412 9.159 12.46
1 8.706 6.68 12.46
1 13.001 4.2 12.46
1 0.117 16.597 12.46
1 4.412 14.118 12.46
1 8.706 11.639 12.46
1 13.001 9.159 12.46
1 0.117 3.238 5.664
1 4.412 0.759 5.664
1 8.706 18.1146 5.664
1 13.001 15.6356 5.664
1 0.117 8.197 5.664
1 4.412 5.718 5.664
1 8.706 3.238 5.664
1 13.001 0.759 5.664
1 0.117 13.156 5.664
1 4.412 10.677 5.664
1 8.706 8.197 5.664
1 13.001 5.718 5.664
1 0.117 18.115 5.664
1 4.412 15.635 5.664
1 8.706 13.156 5.664
1 13.001 10.677 5.664
1 1.432 0.962 5.664
1 5.726 18.3186 5.664
1 10.021 15.8386 5.664
1 14.315 13.3596 5.664
1 1.432 5.921 5.664
1 5.726 3.441 5.664
1 10.021 0.962 5.664
1 14.315 18.3186 5.664
1 1.432 10.88 5.664
1 5.726 8.4 5.664
1 10.021 5.921 5.664
1 14.315 3.441 5.664
1 1.432 15.839 5.664
1 5.726 13.359 5.664
1 10.021 10.88 5.664
1 14.315 8.4 5.664
1 2.746 3.238 5.664
1 7.04 0.759 5.664
1 11.335 18.1146 5.664
1 15.629 15.6356 5.664
1 2.746 8.197 5.664
1 7.04 5.718 5.664
1 11.335 3.238 5.664
1 15.629 0.759 5.664
1 2.746 13.156 5.664
1 7.04 10.677 5.664
1 11.335 8.197 5.664
1 15.629 5.718 5.664
1 2.746 18.115 5.664
1 7.04 15.635 5.664
1 11.335 13.156 5.664
1 15.629 10.677 5.664
2 4.295 17.3566 4.724
2 8.589 14.8766 4.724
2 12.884 12.3976 4.724
2 0 4.959 4.724
2 4.295 2.479 4.724
2 8.589 0 4.724
2 12.884 17.3566 4.724
2 0 9.918 4.724
2 4.295 7.438 4.724
2 8.589 4.959 4.724
2 12.884 2.479 4.724
2 0 14.877 4.724
2 4.295 12.397 4.724
2 8.589 9.918 4.724
2 12.884 7.438 4.724
2 0 0 2.073
2 4.295 17.3566 2.073
2 8.589 14.8766 2.073
2 12.884 12.3976 2.073
2 0 4.959 2.073
2 4.295 2.479 2.073
2 8.589 0 2.073
2 12.884 17.3566 2.073
2 0 9.918 2.073
2 4.295 7.438 2.073
2 8.589 4.959 2.073
2 12.884 2.479 2.073
2 0 14.877 2.073
2 4.295 12.397 2.073
2 8.589 9.918 2.073
2 12.884 7.438 2.073
2 0 0 7.56005
2 4.295 17.3566 8.869
2 8.589 14.8766 8.869
2 12.884 12.3976 8.869
2 0 4.959 8.869
2 4.295 2.479 8.869
2 8.589 0 8.869
2 12.884 17.3566 8.869
2 0 9.918 8.869
2 4.295 7.438 8.869
2 8.589 4.959 8.869
2 12.884 2.479 8.869
2 0 14.877 8.869
2 4.295 12.397 8.869
2 8.589 9.918 8.869
2 12.884 7.438 8.869
2 0 0 11.52
2 4.295 17.3566 11.52
2 8.589 14.8766 11.52
2 12.884 12.3976 11.52
2 0 4.959 11.52
2 4.295 2.479 11.52
2 8.589 0 11.52
2 12.884 17.3566 11.52
2 0 9.918 11.52
2 4.295 7.438 11.52
2 8.589 4.959 11.52
2 12.884 2.479 11.52
2 0 14.877 11.52
2 4.295 12.397 11.52
2 8.589 9.918 11.52
2 12.884 7.438 11.52
2 2.863 0 9.255
2 7.158 17.3566 9.255
2 11.452 14.8766 9.255
2 15.747 12.3976 9.255
2 2.863 4.959 9.255
2 7.158 2.479 9.255
2 11.452 0 9.255
2 15.747 17.3566 9.255
2 2.863 9.918 9.255
2 7.158 7.438 9.255
2 11.452 4.959 9.255
2 15.747 2.479 9.255
2 2.863 14.877 9.255
2 7.158 12.397 9.255
2 11.452 9.918 9.255
2 15.747 7.438 9.255
2 2.863 0 6.604
2 7.158 17.3566 6.604
2 11.452 14.8766 6.604
2 15.747 12.3976 6.604
2 2.863 4.959 6.604
2 7.158 2.479 6.604
2 11.452 0 6.604
2 15.747 17.3566 6.604
2 2.863 9.918 6.604
2 7.158 7.438 6.604
2 11.452 4.959 6.604
2 15.747 2.479 6.604
2 2.863 14.877 6.604
2 7.158 12.397 6.604
2 11.452 9.918 6.604
2 15.747 7.438 6.604
2 2.863 0 13.401
2 7.158 17.3566 13.401
2 11.452 14.8766 13.401
2 15.747 12.3976 13.401
2 2.863 4.959 13.401
2 7.158 2.479 13.401
2 11.452 0 13.401
2 15.747 17.3566 13.401
2 2.863 9.918 13.401
2 7.158 7.438 13.401
2 11.452 4.959 13.401
2 15.747 2.479 13.401
2 2.863 14.877 13.401
2 7.158 12.397 13.401
2 11.452 9.918 13.401
2 15.747 7.438 13.401
2 2.863 0 2.458
2 7.158 17.3566 2.458
2 11.452 14.8766 2.458
2 15.747 12.3976 2.458
2 2.863 4.959 2.458
2 7.158 2.479 2.458
2 11.452 0 2.458
2 15.747 17.3566 2.458
2 2.863 9.918 2.458
2 7.158 7.438 2.458
2 11.452 4.959 2.458
2 15.747 2.479 2.458
2 2.863 14.877 2.458
2 7.158 12.397 2.458
2 11.452 9.918 2.458
2 15.747 7.438 2.458
2 1.432 2.479 0.193
2 5.726 0 0.193
2 10.021 17.3566 0.193
2 14.315 14.8766 0.193
2 1.432 7.438 0.193
2 5.726 4.959 0.193
2 10.021 2.479 0.193
2 14.315 0 0.193
2 1.432 12.397 0.193
2 5.726 9.918 0.193
2 10.021 7.438 0.193
2 14.315 4.959 0.193
2 1.432 17.356 0.193
2 5.726 14.877 0.193
2 10.021 12.397 0.193
2 14.315 9.918 0.193
2 1.432 2.479 11.135
2 5.726 0 11.135
2 10.021 17.3566 11.135
2 14.315 14.8766 11.135
2 1.432 7.438 11.135
2 5.726 4.959 11.135
2 10.021 2.479 11.135
2 14.315 0 11.135
2 1.432 12.397 11.135
2 5.726 9.918 11.135
2 10.021 7.438 11.135
2 14.315 4.959 11.135
2 1.432 17.356 11.135
2 5.726 14.877 11.135
2 10.021 12.397 11.135
2 14.315 9.918 11.135
2 1.432 2.479 4.338
2 5.726 0 4.338
2 10.021 17.3566 4.338
2 14.315 14.8766 4.338
2 1.432 7.438 4.338
2 5.726 4.959 4.338
2 10.021 2.479 4.338
2 14.315 0 4.338
2 1.432 12.397 4.338
2 5.726 9.918 4.338
2 10.021 7.438 4.338
2 14.315 4.959 4.338
2 1.432 17.356 4.338
2 5.726 14.877 4.338
2 10.021 12.397 4.338
2 14.315 9.918 4.338
2 1.432 2.479 6.989
2 5.726 0 6.989
2 10.021 17.3566 6.989
2 14.315 14.8766 6.989
2 1.432 7.438 6.989
2 5.726 4.959 6.989
2 10.021 2.479 6.989
2 14.315 0 6.989
2 1.432 12.397 6.989
2 5.726 9.918 6.989
2 10.021 7.438 6.989
2 14.315 4.959 6.989
2 1.432 17.356 6.989
2 5.726 14.877 6.989
2 10.021 12.397 6.989
2 14.315 9.918 6.9847479
Atoms. Timestep: 720
1 1.40574 19.0439 3.1685
1 5.62373 16.587 3.38566
1 9.886 14.1201 3.39471
1 14.1838 11.6437 3.39646
1 1.26157 4.28182 3.38302
1 5.59087 1.74287 3.39661
1 9.88768 19.0944 3.40146
1 14.1595 16.564 3.3495
1 1.30229 9.17314 3.40103
1 5.59735 6.69027 3.40933
1 9.88323 4.21728 3.40738
1 14.2208 1.72477 3.47006
1 1.29615 14.1287 3.4077
1 5.59591 11.6444 3.40444
1 9.88688 9.16816 3.39827
1 14.1671 6.69887 3.39733
1 -0.0187378 1.61559 3.16889
1 4.33839 18.8577 3.35074
1 8.58639 16.3686 3.39618
1 12.8823 13.8762 3.39423
1 0.00173762 6.49734 3.38991
1 4.29268 3.97742 3.41029
1 8.5879 1.50953 3.40678
1 12.84 18.7885 3.37883
1 0.000611588 11.4111 3.40484
1 4.29976 8.93775 3.40578
1 8.5902 6.46441 3.40128
1 12.8746 3.97689 3.39703
1 -0.015568 16.4112 3.46832
1 4.29236 13.8875 3.40141
1 8.59067 11.4115 3.39708
1 12.8812 8.94012 3.40009
1 2.96929 1.6999 3.47006
1 7.30282 19.0958 3.39913
1 11.5513 16.5877 3.38439
1 15.8875 14.1196 3.39633
1 3.00612 6.69034 3.40422
1 7.29557 4.21684 3.40265
1 11.5902 1.73387 3.40559
1 15.7866 19.0125 3.16801
1 2.99817 11.6443 3.40909
1 7.29467 9.16861 3.40042
1 11.5827 6.68957 3.39887
1 15.8548 4.24985 3.35182
1 3.07393 16.602 3.38181
1 7.29481 14.1179 3.40096
1 11.5838 11.6408 3.3988
1 15.88 9.17092 3.40033
1 2.9865 18.0912 10.1503
1 7.29523 15.6125 10.1909
1 11.5838 13.1422 10.1828
1 15.8768 10.6612 10.1991
1 3.02663 3.27325 10.2347
1 7.28788 0.742719 10.189
1 11.5682 18.0948 10.1971
1 15.8897 15.5774 10.2036
1 2.99945 8.19668 10.202
1 7.29521 5.71715 10.2007
1 11.5644 3.25102 10.2073
1 15.7679 0.836122 10.4082
1 3.01515 13.1308 10.2076
1 7.29781 10.6685 10.2001
1 11.5854 8.1929 10.1954
1 15.8826 5.71758 10.1888
1 0.0149229 3.46128 10.153
1 4.32747 1.014 10.2063
1 8.58366 18.3272 10.1831
1 12.8742 15.8524 10.1847
1 0.00235346 8.42777 10.1962
1 4.3006 5.96615 10.2075
1 8.59439 3.46933 10.1989
1 12.8304 0.985948 10.2313
1 -0.00716608 13.3464 10.2074
1 4.3017 10.8934 10.1963
1 8.59185 8.42567 10.1985
1 12.8845 5.95117 10.1939
1 -0.0220206 18.1959 10.409
1 4.30792 15.8431 10.2016
1 8.59171 13.3687 10.1954
1 12.8827 10.895 10.1943
1 1.42826 0.801239 10.4096
1 5.59419 18.0943 10.1885
1 9.87923 15.6167 10.1946
1 14.1726 13.14 10.1906
1 1.30052 5.72826 10.2031
1 5.62158 3.24055 10.2101
1 9.86712 0.74122 10.2057
1 14.173 18.117 10.1511
1 1.29858 10.6669 10.1977
1 5.59972 8.19953 10.1963
1 9.88512 5.72104 10.1964
1 14.137 3.2431 10.205
1 1.31827 15.5766 10.2337
1 5.59962 13.1408 10.1959
1 9.88939 10.6671 10.1922
1 14.1811 8.19066 10.1848
1 4.17576 19.0717 7.87107
1 8.45354 16.5997 7.93329
1 12.7508 14.1224 7.91698
1 17.0437 11.6348 7.93122
1 4.17793 4.23412 7.97654
1 8.455 1.73736 7.94282
1 12.7095 19.0801 7.94774
1 17.0536 16.5754 8.0324
1 4.16837 9.17092 7.93304
1 8.45893 6.6971 7.9337
1 12.7313 4.23079 7.9364
1 17.0383 1.76772 7.73906
1 4.17554 14.1027 7.91709
1 8.46155 11.6465 7.92711
1 12.7505 9.16893 7.92513
1 17.0378 6.69764 7.93175
1 2.88097 1.52474 8.03458
1 7.1498 18.8548 7.91912
1 11.4452 16.3612 7.92635
1 15.7388 13.8676 7.93473
1 2.87659 6.48125 7.92084
1 7.16426 3.99053 7.93593
1 11.4239 1.50581 7.97298
1 15.7144 18.8321 7.73708
1 2.86585 11.4069 7.93724
1 7.16444 8.94173 7.93171
1 11.4496 6.47074 7.93662
1 15.7499 4.00449 7.87091
1 2.88638 16.3427 7.94831
1 7.16235 13.8881 7.92951
1 11.4546 11.4144 7.92454
1 15.7489 8.93771 7.93485
1 1.59535 19.0711 7.73646
1 5.867 16.6054 7.92976
1 10.1512 14.1223 7.93402
1 14.4449 11.6359 7.93476
1 1.5786 4.24752 7.94994
1 5.87966 1.7407 7.93386
1 10.1267 19.0859 7.91185
1 14.4224 16.5965 7.86801
1 1.56864 9.16763 7.93721
1 5.87099 6.69774 7.93836
1 10.1482 4.22244 7.92908
1 14.4158 1.73711 8.0309
1 1.57435 14.0985 7.97582
1 5.86871 11.6405 7.93506
1 10.1581 9.17063 7.92954
1 14.447 6.69053 7.91991
1 1.62844 0.756164 1.09352
1 5.88148 18.0941 1.11329
1 10.1459 15.6136 1.1201
1 14.4471 13.1341 1.12796
1 1.5666 5.72792 1.1234
1 5.86856 3.23977 1.14444
1 10.1484 0.755505 1.12678
1 14.4004 18.0484 1.04482
1 1.56884 10.666 1.13694
1 5.85914 8.18882 1.14244
1 10.1502 5.71593 1.13793
1 14.4118 3.2547 1.16963
1 1.58118 15.6176 1.15865
1 5.86582 13.1412 1.13744
1 10.154 10.6652 1.13165
1 14.4429 8.19753 1.13864
1 2.93363 18.3226 1.04669
1 7.16553 15.8452 1.12235
1 11.4465 13.3637 1.13434
1 15.7457 10.8953 1.13499
1 2.8624 3.48043 1.1605
1 7.17192 0.986402 1.13415
1 11.4372 18.3262 1.115
1 15.7421 15.8116 1.16763
1 2.86561 8.42698 1.13853
1 7.16104 5.94932 1.13917
1 11.4407 3.46704 1.14566
1 15.7087 1.0324 1.09261
1 2.86153 13.3667 1.12883
1 7.1574 10.8943 1.13673
1 11.4505 8.42181 1.13523
1 15.743 5.96688 1.11584
1 4.20235 0.768153 1.16975
1 8.46034 18.0984 1.14013
1 12.7295 15.6064 1.11339
1 17.0473 13.1339 1.14491
1 4.17282 5.71518 1.1299
1 8.4582 3.23416 1.13687
1 12.7359 0.738777 1.15912
1 17.0173 18.0469 1.09297
1 4.1613 10.673 1.14114
1 8.456 8.19273 1.13197
1 12.7411 5.71667 1.12913
1 17.0206 3.29854 1.04787
1 4.17453 15.6147 1.12065
1 8.45344 13.1388 1.13259
1 12.7476 10.6646 1.12957
1 17.0453 8.20125 1.12656
1 2.78464 1.7845 12.5237
1 7.02835 19.084 12.4593
1 11.3115 16.5979 12.4534
1 15.6118 14.1061 12.4718
1 2.73442 6.70542 12.4697
1 7.03418 4.22258 12.4732
1 11.2927 1.74749 12.4774
1 15.5388 19.0838 12.453
1 2.73388 11.6327 12.4593
1 7.02642 9.17148 12.4642
1 11.3126 6.69691 12.4613
1 15.593 4.21496 12.4341
1 2.75725 16.5708 12.4365
1 7.02982 14.1188 12.4587
1 11.3201 11.6454 12.4533
1 15.6073 9.16588 12.4606
1 1.448 4.02119 12.4392
1 5.74117 1.51082 12.4772
1 10.0026 18.8506 12.4608
1 14.3196 16.3532 12.431
1 1.43177 8.93907 12.4632
1 5.73712 6.47356 12.4612
1 10.0151 3.99373 12.4719
1 14.2418 1.52121 12.5221
1 1.43316 13.8615 12.4767
1 5.72859 11.4129 12.4626
1 10.0213 8.94257 12.4603
1 14.3142 6.4668 12.4594
1 1.4697 18.792 12.4538
1 5.73512 16.3685 12.4543
1 10.0213 13.8861 12.4569
1 14.3128 11.4064 12.4606
1 0.16801 1.79555 12.4536
1 4.44053 19.1009 12.4306
1 8.71994 16.6035 12.4561
1 13.0092 14.1187 12.4561
1 0.131864 6.69832 12.4573
1 4.45538 4.2311 12.4775
1 8.7166 1.74134 12.4548
1 12.9714 19.0796 12.434
1 0.130488 11.6329 12.4718
1 4.43262 9.17087 12.4702
1 8.72593 6.6988 12.4642
1 13.0026 4.22169 12.4727
1 0.150292 16.5313 12.5223
1 4.43992 14.1135 12.4685
1 8.72401 11.6439 12.4646
1 13.0163 9.16296 12.4572
1 0.127626 3.22911 5.57894
1 4.44548 0.7528 5.66416
1 8.70334 18.0976 5.65249
1 13.0163 15.6308 5.63197
1 0.136125 8.19921 5.67314
1 4.4409 5.72904 5.67772
1 8.71507 3.23615 5.67118
1 12.9565 0.772841 5.76738
1 0.146058 13.1362 5.66745
1 4.43817 10.6631 5.6688
1 8.72744 8.18961 5.66668
1 13.0118 5.72162 5.67386
1 0.148906 18.0265 5.90946
1 4.44337 15.598 5.65625
1 8.72753 13.1407 5.66187
1 13.0186 10.6648 5.65854
1 1.48585 1.03516 5.91191
1 5.71294 18.3307 5.63458
1 10.0114 15.848 5.6676
1 14.3075 13.366 5.67172
1 1.44658 5.96871 5.66048
1 5.72795 3.4797 5.6679
1 9.99896 0.982 5.66964
1 14.3152 18.3319 5.57596
1 1.43121 10.8932 5.6717
1 5.73613 8.42518 5.66688
1 10.0241 5.94439 5.66535
1 14.2992 3.48037 5.66543
1 1.43811 15.7914 5.77002
1 5.73581 13.3631 5.6606
1 10.0253 10.8978 5.661
1 14.3213 8.41958 5.6615
1 2.77997 3.26863 5.77103
1 7.02577 0.747985 5.67359
1 11.2849 18.1016 5.65471
1 15.6028 15.6023 5.66476
1 2.73789 8.20179 5.6614
1 7.03555 5.71413 5.67025
1 11.3035 3.2245 5.66596
1 15.5361 0.77157 5.91182
1 2.7407 13.1273 5.67372
1 7.03173 10.666 5.66429
1 11.3196 8.19124 5.66139
1 15.6193 5.70688 5.63581
1 2.72747 18.1082 5.57802
1 7.02783 15.6146 5.67028
1 11.3182 13.1485 5.66014
1 15.6125 10.6695 5.66414
2 4.24374 17.3311 4.80068
2 8.58878 14.8774 4.86641
2 12.8878 12.4011 4.86212
2 0.0466451 4.93015 4.8029
2 4.23592 2.49132 4.87349
2 8.57502 0.000256901 4.85945
2 12.8821 17.4108 4.79868
2 0.00247413 9.91963 4.87088
2 4.29957 7.44413 4.86733
2 8.58957 4.95619 4.87147
2 12.9002 2.42268 4.872
2 0.0382964 14.9206 4.87244
2 4.29961 12.3929 4.86515
2 8.59445 9.91684 4.86821
2 12.8885 7.43433 4.86464
2 -0.00144031 0.000189416 2.08357
2 4.293 17.3573 1.90633
2 8.58885 14.8793 1.92837
2 12.8877 12.4007 1.92557
2 0.000854108 4.95684 1.90896
2 4.29338 2.48787 1.93842
2 8.60774 0.00154398 1.92883
2 12.8827 17.3574 1.90418
2 0.00110165 9.91828 1.93402
2 4.28297 7.41806 1.93622
2 8.58982 4.9561 1.93553
2 12.8775 2.4709 1.93769
2 0.00846401 14.8765 1.93748
2 4.2816 12.4192 1.93399
2 8.5902 9.91731 1.9314
2 12.886 7.4323 1.92886
2 -0.00295929 0.00029832 7.01112
2 4.2829 17.3896 8.73599
2 8.59036 14.8766 8.72804
2 12.885 12.3997 8.72254
2 -0.0237696 4.93257 8.73792
2 4.30698 2.45929 8.78729
2 8.57958 -0.00393841 8.72728
2 12.9131 17.3487 8.73343
2 0.000981898 9.91466 8.7316
2 4.29802 7.44195 8.73342
2 8.58967 4.96264 8.73175
2 12.8924 2.50002 8.78517
2 -0.0252125 14.8751 8.78589
2 4.2987 12.3935 8.73145
2 8.595 9.9207 8.72584
2 12.8895 7.43837 8.72536
2 -0.00113787 -0.000425019 11.4323
2 4.29202 17.358 11.6652
2 8.59019 14.8772 11.6638
2 12.894 12.4077 11.6581
2 0.000136296 4.95462 11.6675
2 4.30007 2.48231 11.6886
2 8.57571 0.00251524 11.6626
2 12.8838 17.3569 11.6629
2 -0.00243632 9.91579 11.6682
2 4.29443 7.43764 11.6713
2 8.59171 4.96061 11.6697
2 12.8798 2.4821 11.6865
2 -0.00107385 14.8719 11.6863
2 4.29203 12.3988 11.6687
2 8.58979 9.92029 11.6645
2 12.8915 7.42299 11.661
2 2.67176 0.0226411 9.36517
2 7.1511 17.3485 9.38699
2 11.4497 14.8825 9.38645
2 15.7422 12.389 9.39977
2 2.86285 4.96223 9.41548
2 7.16581 2.47881 9.40186
2 11.4457 -0.0020133 9.41107
2 15.8593 17.5103 9.36426
2 2.86349 9.91878 9.40298
2 7.1601 7.4421 9.40274
2 11.4498 4.96672 9.40007
2 15.8212 2.30274 9.36561
2 2.86491 14.8754 9.41374
2 7.16042 12.3981 9.39954
2 11.457 9.91791 9.39602
2 15.7542 7.43632 9.38969
2 2.92422 -0.0565707 6.43328
2 7.13056 17.3627 6.441
2 11.4686 14.8978 6.44136
2 15.7537 12.4054 6.45705
2 2.87482 4.99541 6.4728
2 7.1489 2.48155 6.45905
2 11.4095 -0.0105888 6.46744
2 15.6631 17.3284 6.43225
2 2.86347 9.92092 6.46506
2 7.16082 7.43392 6.46554
2 11.4559 4.94607 6.45752
2 15.7608 2.56278 6.43436
2 2.88919 14.8487 6.47038
2 7.16143 12.3977 6.46162
2 11.4584 9.91957 6.45917
2 15.7556 7.4147 6.44482
2 2.81564 0.00765276 13.1924
2 7.15517 17.3622 13.2569
2 11.4582 14.8764 13.2555
2 15.7438 12.3951 13.2644
2 2.86074 4.95376 13.2764
2 7.16121 2.48087 13.2657
2 11.4533 -0.00131831 13.2702
2 15.7769 17.3954 13.1917
2 2.86014 9.91689 13.2629
2 7.1587 7.44105 13.2622
2 11.4534 4.96156 13.2656
2 15.7647 2.43113 13.1934
2 2.85963 14.8827 13.2748
2 7.15674 12.3968 13.2596
2 11.4572 9.91823 13.2527
2 15.7438 7.43101 13.2598
2 2.89708 -0.000157516 2.51304
2 7.15432 17.365 2.59809
2 11.4564 14.878 2.59773
2 15.7519 12.4042 2.60487
2 2.82947 4.92041 2.63764
2 7.15375 2.47541 2.60636
2 11.4988 -0.0098748 2.63246
2 15.7262 17.3261 2.51229
2 2.86834 9.92111 2.60487
2 7.15326 7.43455 2.60502
2 11.4563 4.95049 2.60648
2 15.7287 2.51051 2.51449
2 2.84667 14.926 2.63537
2 7.15493 12.3969 2.60088
2 11.4553 9.91669 2.59912
2 15.7465 7.43363 2.60255
2 1.40969 2.45711 0.36535
2 5.71376 0.00660597 0.329862
2 10.018 17.3542 0.330935
2 14.3284 14.8899 0.325147
2 1.43128 7.43895 0.337275
2 5.72629 4.95978 0.339804
2 10.0219 2.47846 0.338404
2 14.343 -0.00842063 0.363472
2 1.4315 12.3989 0.338994
2 5.71986 9.91783 0.346992
2 10.0215 7.43864 0.338565
2 14.3207 4.93933 0.327385
2 1.42259 17.3878 0.364144
2 5.72648 14.8776 0.333967
2 10.0211 12.3978 0.334571
2 14.3184 9.91546 0.337018
2 1.45136 2.50092 11.0484
2 5.69522 0.000368672 10.9737
2 10.0171 17.3577 10.9911
2 14.3305 14.9021 10.9708
2 1.43007 7.43678 10.9985
2 5.72641 4.96082 10.9992
2 10.0219 2.47558 10.9989
2 14.2842 0.00462498 11.0459
2 1.43172 12.3982 10.998
2 5.72772 9.92032 10.9991
2 10.0243 7.44276 10.9964
2 14.3295 4.93069 10.9736
2 1.44052 17.3285 11.0468
2 5.72563 14.8785 10.995
2 10.0275 12.3995 10.9899
2 14.3123 9.9121 10.9939
2 1.26371 2.19574 4.27354
2 5.70854 0.00268393 4.1882
2 10.0161 17.3586 4.19068
2 14.323 14.8886 4.18736
2 1.43358 7.44024 4.1967
2 5.72423 4.94952 4.20937
2 10.0266 2.47859 4.20815
2 14.6398 -0.00397867 4.27139
2 1.42766 12.404 4.20879
2 5.73095 9.91755 4.19813
2 10.0234 7.4352 4.19607
2 14.3205 4.94476 4.18976
2 1.26778 17.6422 4.27179
2 5.72751 14.8782 4.19378
2 10.023 12.3986 4.192
2 14.3167 9.91787 4.1945
2 1.53358 2.53446 7.17343
2 5.72841 0.0118527 7.131
2 10.0106 17.3469 7.13096
2 14.3203 14.8661 7.12996
2 1.42485 7.43894 7.13772
2 5.72383 4.952 7.15134
2 10.0218 2.48044 7.14977
2 14.2122 0.0624857 7.17104
2 1.42695 12.402 7.15008
2 5.72996 9.91628 7.13438
2 10.027 7.43633 7.13307
2 14.3034 4.9595 7.13238
2 1.42508 17.2385 7.17129
2 5.73161 14.8829 7.13446
2 10.0281 12.4076 7.12833
2 14.3266 9.9479
Atoms. Timestep: 479
Atoms. Timestep: 1518
1 1.40662 19.052 3.15527
1 5.62441 16.5869 3.38343
1 9.88617 14.1202 3.39445
1 14.1831 11.6428 3.39581
1 1.25692 4.28354 3.37704
1 5.59311 1.73989 3.39438
1 9.88779 19.0942 3.40067
1 14.1627 16.5657 3.34631
1 1.30216 9.17226 3.40035
1 5.59797 6.69163 3.40755
1 9.8828 4.21773 3.40743
1 14.2075 1.73164 3.43666
1 1.29837 14.1234 3.40006
1 5.59656 11.6443 3.405
1 9.8872 9.16857 3.39883
1 14.168 6.69877 3.39823
1 17.1517 1.61245 3.15588
1 4.33452 18.8596 3.34713
1 8.58676 16.3688 3.39528
1 12.8819 13.877 3.39501
1 0.00143325 6.49774 3.38799
1 4.296 3.9819 3.40283
1 8.58739 1.50925 3.40426
1 12.8406 18.7834 3.37279
1 0.000361023 11.4101 3.40513
1 4.3006 8.93784 3.4063
1 8.5908 6.46498 3.40083
1 12.8759 3.9808 3.39515
1 17.1632 16.3962 3.43481
1 4.2923 13.8877 3.40117
1 8.59087 11.4118 3.39688
1 12.8813 8.94006 3.39973
1 2.98161 1.70791 3.43681
1 7.30148 19.0952 3.40058
1 11.5508 16.5872 3.38243
1 15.8834 14.1186 3.39455
1 3.00602 6.69002 3.40405
1 7.29602 4.21736 3.40221
1 11.5848 1.7344 3.39812
1 15.7931 19.0074 3.155
1 2.99919 11.6431 3.40729
1 7.29544 9.16871 3.3995
1 11.5825 6.69047 3.39804
1 15.8546 4.24614 3.34872
1 3.07777 16.6049 3.3757
1 7.29484 14.1185 3.40071
1 11.5836 11.6411 3.39854
1 15.8796 9.17062 3.39996
1 3.00555 18.0931 10.1687
1 7.29486 15.6123 10.1914
1 11.5847 13.1418 10.183
1 15.8775 10.6616 10.1995
1 3.02608 3.26641 10.2301
1 7.29051 0.743675 10.1904
1 11.5661 18.0969 10.1949
1 15.8765 15.5882 10.2076
1 2.99949 8.19713 10.2021
1 7.29529 5.7171 10.2016
1 11.5692 3.24912 10.2078
1 15.7976 0.820862 10.3159
1 3.01581 13.1316 10.2102
1 7.2981 10.6687 10.2008
1 11.5851 8.19382 10.1976
1 15.8797 5.72007 10.1903
1 0.0036461 3.47681 10.1714
1 4.32468 0.997383 10.2104
1 8.58292 18.3278 10.183
1 12.8734 15.8485 10.1861
1 0.00237687 8.42759 10.1965
1 4.29962 5.96646 10.21
1 8.5942 3.4695 10.2
1 12.8365 0.989093 10.2265
1 17.1703 13.352 10.2082
1 4.30187 10.8937 10.1966
1 8.59191 8.42567 10.1987
1 12.8823 5.95309 10.1955
1 17.1542 18.2291 10.3172
1 4.30669 15.8405 10.1998
1 8.59184 13.369 10.1959
1 12.8827 10.8939 10.1964
1 1.40018 0.783022 10.3182
1 5.59768 18.0954 10.1899
1 9.87935 15.6168 10.1944
1 14.1723 13.1372 10.1922
1 1.30333 5.72855 10.2014
1 5.61699 3.23754 10.2109
1 9.86849 0.740362 10.2102
1 14.1648 18.0994 10.1695
1 1.29829 10.6674 10.199
1 5.59958 8.1997 10.1966
1 9.88533 5.72035 10.1971
1 14.1524 3.24933 10.2096
1 1.31239 15.5805 10.2291
1 5.60005 13.1405 10.1957
1 9.88961 10.6675 10.192
1 14.1808 8.19011 10.185
1 4.16699 19.0792 7.90079
1 8.45165 16.5989 7.93492
1 12.753 14.1263 7.91593
1 17.043 11.6354 7.93395
1 4.18675 4.24446 7.98854
1 8.44969 1.73789 7.94477
1 12.7031 19.0793 7.94854
1 17.0552 16.5791 8.04605
1 4.16949 9.17109 7.93302
1 8.4601 6.69728 7.93481
1 12.7323 4.2233 7.93763
1 17.0527 1.755 7.80776
1 4.17936 14.0999 7.91401
1 8.46256 11.6462 7.92739
1 12.7516 9.16815 7.92536
1 17.04 6.69761 7.93271
1 2.87626 1.52443 8.04862
1 7.14387 18.8543 7.91761
1 11.4439 16.3633 7.92709
1 15.7448 13.8721 7.93609
1 2.87698 6.48578 7.91787
1 7.16379 3.9906 7.93939
1 11.4097 1.5085 7.98491
1 15.718 18.8514 7.80547
1 2.8674 11.4042 7.93891
1 7.16559 8.94263 7.93183
1 11.4507 6.46938 7.9374
1 15.7475 3.99339 7.90123
1 2.88991 16.3379 7.94926
1 7.16464 13.8873 7.9299
1 11.456 11.4152 7.92448
1 15.7481 8.93704 7.93648
1 1.57658 19.0643 7.80475
1 5.86514 16.6032 7.93021
1 10.1528 14.122 7.93559
1 14.4459 11.6372 7.9355
1 1.5808 4.2531 7.95097
1 5.87131 1.74384 7.93484
1 10.1207 19.0841 7.9085
1 14.4331 16.6002 7.89809
1 1.56773 9.16918 7.93853
1 5.87356 6.70047 7.9405
1 10.1487 4.22257 7.93167
1 14.4181 1.73362 8.04481
1 1.57858 14.0855 7.98793
1 5.87003 11.6397 7.93533
1 10.1594 9.17048 7.92983
1 14.4494 6.68673 7.91871
1 1.62513 0.757152 1.07516
1 5.88007 18.0956 1.11229
1 10.1463 15.6139 1.11896
1 14.4457 13.1345 1.12724
1 1.56647 5.72684 1.12147
1 5.86948 3.23799 1.14335
1 10.1486 0.754417 1.1242
1 14.4043 18.0498 1.03171
1 1.56828 10.6661 1.13641
1 5.85906 8.1887 1.1417
1 10.1501 5.71555 1.13717
1 14.4154 3.25234 1.15908
1 1.5785 15.6176 1.14547
1 5.8656 13.1416 1.13729
1 10.1536 10.6654 1.13175
1 14.4426 8.19632 1.13775
1 2.93041 18.3253 1.03333
1 7.16562 15.8459 1.12115
1 11.4473 13.3644 1.1336
1 15.7455 10.895 1.13434
1 2.86375 3.47816 1.14752
1 7.17245 0.984891 1.13272
1 11.4385 18.3265 1.11299
1 15.7423 15.8156 1.15709
1 2.86554 8.42679 1.13852
1 7.16113 5.94884 1.13869
1 11.442 3.46836 1.14459
1 15.7097 1.02892 1.07421
1 2.86244 13.3668 1.12628
1 7.15731 10.8947 1.13671
1 11.4501 8.42231 1.13523
1 15.7425 5.9648 1.1149
1 4.19869 0.766316 1.15925
1 8.45974 18.0992 1.13903
1 12.7315 15.6069 1.11239
1 17.0453 13.134 1.14387
1 4.17239 5.71595 1.12731
1 8.45885 3.23433 1.13563
1 12.7374 0.74095 1.14583
1 17.0196 18.0493 1.07452
1 4.16118 10.6732 1.14051
1 8.45595 8.19267 1.13192
1 12.7422 5.71762 1.12844
1 17.0199 3.29456 1.03482
1 4.17362 15.6154 1.1186
1 8.45344 13.1393 1.13252
1 12.747 10.6646 1.12983
1 17.0447 8.20082 1.12558
1 2.77207 1.76506 12.49
1 7.02939 19.0858 12.4564
1 11.3124 16.5987 12.4528
1 15.6108 14.1058 12.4706
1 2.73333 6.70448 12.4689
1 7.03334 4.22201 12.4724
1 11.2965 1.7473 12.4759
1 15.5575 19.0855 12.4201
1 2.73314 11.6336 12.4593
1 7.02612 9.17145 12.4643
1 11.3122 6.6977 12.4622
1 15.5924 4.21527 12.4329
1 2.74856 16.5755 12.4403
1 7.02958 14.1191 12.4588
1 11.3192 11.6446 12.4538
1 15.6072 9.16544 12.46
1 1.44808 4.01128 12.4432
1 5.74226 1.5099 12.4759
1 10.0055 18.85 12.4602
1 14.3197 16.3525 12.4297
1 1.43165 8.93895 12.4633
1 5.73658 6.47254 12.461
1 10.0161 3.99308 12.4708
1 14.265 1.51985 12.4882
1 1.43141 13.8646 12.4749
1 5.72834 11.4133 12.4628
1 10.021 8.94251 12.4608
1 14.3122 6.46638 12.4565
1 1.4588 18.8072 12.4209
1 5.73367 16.3688 12.4542
1 10.0216 13.8864 12.4568
1 14.3127 11.4058 12.4612
1 0.160077 1.77847 12.4207
1 4.4411 19.1013 12.4291
1 8.72004 16.6039 12.4556
1 13.0107 14.1172 12.4531
1 0.13232 6.69696 12.4572
1 4.45356 4.2281 12.4758
1 8.71855 1.74124 12.4553
1 12.9804 19.0845 12.4378
1 0.130554 11.634 12.4712
1 4.43224 9.1709 12.4703
1 8.72559 6.6985 12.464
1 13.0028 4.22275 12.4716
1 0.139665 16.552 12.4884
1 4.43961 14.1149 12.4677
1 8.72382 11.6442 12.4646
1 13.0154 9.16417 12.458
1 0.132695 3.22803 5.59716
1 4.45434 0.7467 5.66769
1 8.70149 18.0969 5.65259
1 13.0149 15.6362 5.63506
1 0.134735 8.2022 5.67529
1 4.45174 5.74476 5.68043
1 8.71332 3.23836 5.67386
1 12.8822 0.775772 5.77366
1 0.145499 13.1323 5.66891
1 4.44106 10.6603 5.66791
1 8.72819 8.19002 5.66678
1 13.0113 5.7241 5.67316
1 0.169194 17.8368 5.84202
1 4.45173 15.5952 5.65529
1 8.72791 13.1398 5.66181
1 13.0183 10.6646 5.65881
1 1.63812 1.1474 5.84586
1 5.70773 18.3263 5.63705
1 10.0096 15.8452 5.6698
1 14.3055 13.3641 5.67115
1 1.44458 5.97743 5.65982
1 5.73111 3.48126 5.66921
1 9.97974 0.98323 5.67201
1 14.3135 18.3372 5.59421
1 1.42996 10.8903 5.67407
1 5.73958 8.42802 5.66571
1 10.0252 5.94522 5.66551
1 14.2989 3.49249 5.66958
1 1.47243 15.7257 5.77648
1 5.73734 13.3618 5.66096
1 10.0258 10.8977 5.66127
1 14.3213 8.41983 5.66154
1 2.81926 3.33091 5.77734
1 7.02334 0.747032 5.67209
1 11.2782 18.0956 5.6539
1 15.5921 15.5957 5.66892
1 2.73887 8.20331 5.66173
1 7.03946 5.71462 5.67273
1 11.3005 3.22681 5.66719
1 15.3615 0.848213 5.84451
1 2.74919 13.1101 5.67618
1 7.03361 10.6666 5.66362
1 11.32 8.19147 5.66178
1 15.6246 5.70543 5.63891
1 2.72311 18.1042 5.5959
1 7.03068 15.6139 5.67209
1 11.3181 13.1485 5.66033
1 15.6113 10.67 5.66456
2 4.23527 17.3304 4.80219
2 8.58902 14.877 4.86675
2 12.8882 12.4014 4.86262