LAMMPS (28 Jun 2014)
Processor partition = 19
Reading data file ...
  orthogonal box = (0 0 0) to (17.1781 19.8356 13.5931)
  1 by 1 by 1 MPI processor grid
  reading atoms ...
  479 atoms
288 atoms in group oxygen
191 atoms in group chromium
WARNING: Resetting reneighboring criteria during minimization (../min.cpp:168)
PPPM initialization ...
WARNING: System is not charge neutral, net charge = -3 (../kspace.cpp:278)
  G vector (1/distance) = 0.315056
  grid = 18 18 15
  stencil order = 5
  estimated absolute RMS force accuracy = 0.00121169
  estimated relative force accuracy = 8.41472e-05
  using double precision FFTs
  3d grid and FFT values/proc = 13750 4860
Setting up minimization ...
Memory usage per processor = 4.77571 Mbytes
Step PotEng Pxx Pyy Pzz Pxy Pxz Pyz Lx Ly Lz Temp 
       0   -14735.494   -135678.21   -136219.36   -32650.369   -1.8057326     13.49242    3.3732597      17.1781      19.8356     13.59308            0 
     100   -14820.988    -81896.05   -81928.122   -177728.35   -5.5709981   -13.631909  -0.75941206      17.1781      19.8356     13.59308  0.029592126 
     200   -14820.993   -81765.703   -81798.816    -177998.3   -2.1508374   -20.521485   -1.9898784      17.1781      19.8356     13.59308 0.0007580621 
     300   -14820.994   -81768.246   -81806.971   -177985.93   -0.7396611   -21.644339   -1.8714111      17.1781      19.8356     13.59308 6.4384126e-05 
     400   -14820.994   -81766.596   -81808.798   -177981.25  -0.31844797   -21.093949   -2.6305435      17.1781      19.8356     13.59308 5.7387182e-05 
     500   -14820.994   -81765.784   -81809.595   -177979.17  0.050245154   -20.361172   -2.4316676      17.1781      19.8356     13.59308 4.3078162e-08 
     600   -14820.994   -81765.731   -81810.031   -177978.43 -0.044806381   -20.034621    -2.438384      17.1781      19.8356     13.59308 3.2728414e-07 
     700   -14820.994   -81765.668   -81810.401   -177977.76   0.16788326   -19.909777   -2.3107035      17.1781      19.8356     13.59308 1.1460644e-07 
     720   -14820.994   -81765.652   -81810.405   -177977.69   0.18298799   -19.859977   -2.3203562      17.1781      19.8356     13.59308 1.2795365e-07 
Loop time of 35.1706 on 1 procs for 720 steps with 479 atoms

Minimization stats:
  Stopping criterion = force tolerance
  Energy initial, next-to-last, final = 
        -14735.4935302     -14820.9936654     -14820.9936174
  Force two-norm initial, final = 92.7447 0.000857427
  Force max component initial, final = 15.11 6.9393e-05
  Final line search alpha, max atom move = 0 0
  Iterations, force evaluations = 720 720

Pair  time (%) = 15.5266 (44.1465)
Kspce time (%) = 2.28422 (6.49468)
Neigh time (%) = 0 (0)
Comm  time (%) = 0.0774121 (0.220104)
Outpt time (%) = 0.000243902 (0.000693483)
Other time (%) = 17.2821 (49.138)

Nlocal:    479 ave 479 max 479 min
Histogram: 1 0 0 0 0 0 0 0 0 0
Nghost:    6479 ave 6479 max 6479 min
Histogram: 1 0 0 0 0 0 0 0 0 0
Neighs:    179004 ave 179004 max 179004 min
Histogram: 1 0 0 0 0 0 0 0 0 0

Total # of neighbors = 179004
Ave neighs/atom = 373.704
Neighbor list builds = 0
Dangerous builds = 0
WARNING: Resetting reneighboring criteria during minimization (../min.cpp:168)
Setting up minimization ...
Memory usage per processor = 4.77571 Mbytes
Step PotEng Pxx Pyy Pzz Pxy Pxz Pyz Lx Ly Lz Temp 
     720   -14820.994   -81765.652   -81810.405   -177977.69   0.18298799   -19.859977   -2.3203562      17.1781      19.8356     13.59308            0 
     800   -14820.994   -81765.587   -81810.332   -177976.89   0.30378091   -19.848776   -2.5517124      17.1781      19.8356     13.59308 2.762022e-10 
     900   -14820.994    -81765.56   -81810.356    -177976.8   0.32904457   -19.808078   -2.5431555      17.1781      19.8356     13.59308 3.089005e-08 
    1000   -14820.994   -81765.553   -81810.367   -177976.76   0.34314623    -19.77373   -2.5385152      17.1781      19.8356     13.59308 7.9865737e-09 
    1100   -14820.994   -81765.579    -81810.48   -177976.86   0.43047843   -19.678983   -2.6715308      17.1781      19.8356     13.59308 3.4205494e-08 
    1200   -14820.994   -81765.534   -81810.368   -177976.69   0.35762842   -19.745097   -2.5376625      17.1781      19.8356     13.59308 2.1093634e-09 
    1300   -14820.994   -81765.585   -81810.469   -177976.83   0.43652846   -19.666424   -2.6676126      17.1781      19.8356     13.59308 3.4034296e-12 
    1400   -14820.994   -81765.568   -81810.477   -177976.84   0.43781809   -19.659026   -2.6782547      17.1781      19.8356     13.59308 3.4741353e-10 
    1500   -14820.994   -81765.588   -81810.495   -177976.83    0.4326199   -19.654644   -2.6684404      17.1781      19.8356     13.59308 1.5697276e-10 
    1518   -14820.994   -81765.581   -81810.485   -177976.81   0.43026908   -19.649376   -2.6726811      17.1781      19.8356     13.59308 2.6842585e-10 
Loop time of 39.1101 on 1 procs for 798 steps with 479 atoms

Minimization stats:
  Stopping criterion = force tolerance
  Energy initial, next-to-last, final = 
        -14820.9936174     -14820.9935363     -14820.9935464
  Force two-norm initial, final = 0.000857427 2.40614e-05
  Force max component initial, final = 6.9393e-05 2.39958e-06
  Final line search alpha, max atom move = 0 0
  Iterations, force evaluations = 798 798

Pair  time (%) = 17.2999 (44.2338)
Kspce time (%) = 2.59228 (6.62815)
Neigh time (%) = 0 (0)
Comm  time (%) = 0.0829256 (0.212031)
Outpt time (%) = 0.000279188 (0.000713851)
Other time (%) = 19.1347 (48.9253)

Nlocal:    479 ave 479 max 479 min
Histogram: 1 0 0 0 0 0 0 0 0 0
Nghost:    6479 ave 6479 max 6479 min
Histogram: 1 0 0 0 0 0 0 0 0 0
Neighs:    180417 ave 180417 max 180417 min
Histogram: 1 0 0 0 0 0 0 0 0 0

Total # of neighbors = 180417
Ave neighs/atom = 376.653
Neighbor list builds = 0
Dangerous builds = 0
