

variable      mytemp equal  1800

# -------------------- FORCE FIELDS ----------------------
pair_style buck/coul/long 10.0 10.0

read_data	NPT_relaxed_1800.data
  orthogonal box = (0.0851417 0.0983139 0.089831) to (77.2159 89.1619 81.4687)
  1 by 5 by 3 MPI processor grid
  reading atoms ...
  58365 atoms
  reading velocities ...
  58365 velocities

pair_coeff    * * 1e-30 1e-30 0.0
pair_coeff    1 2 1204.18 0.3165   0.0
pair_coeff    1 1 9547.96 0.21916  32.0

kspace_style    pppm 0.0001

## Define group
group oxygen type 1
35019 atoms in group oxygen
group chromium type 2
23346 atoms in group chromium


## --------------------- NVT  --------------------
compute allmsd all displace/atom

#dump          2 all custom 25000  dump/dump id type xu yu zu c_allmsd[1] c_allmsd[2] c_allmsd[3] c_allmsd[4]
#dump          1 all xyz 25000 xyz/all.xyz
#dump_modify   1 element O Cr



compute   Omsd oxygen msd com yes
compute   Crmsd chromium msd com yes
variable  OMSDX equal "c_Omsd[1]"
variable  OMSDY equal "c_Omsd[2]"
variable  OMSDZ equal "c_Omsd[3]"
variable  OMSDAll equal "c_Omsd[4]"

variable  CrMSDX equal "c_Crmsd[1]"
variable  CrMSDY equal "c_Crmsd[2]"
variable  CrMSDZ equal "c_Crmsd[3]"
variable  CrMSDAll equal "c_Crmsd[4]"

thermo          1000
thermo_style    custom step pe ke press lx ly lz temp c_Omsd[1]  c_Omsd[2]  c_Omsd[3]  c_Omsd[4]  c_Crmsd[1]  c_Crmsd[2]  c_Crmsd[3]  c_Crmsd[4]


fix          1 all print 100 "${OMSDX}   ${OMSDY}   ${OMSDZ}  ${OMSDAll}  ${CrMSDX}   ${CrMSDY}   ${CrMSDZ}  ${CrMSDAll}" file MSD1800.data screen no
fix          3 all nvt temp ${mytemp} ${mytemp} 0.01
fix          3 all nvt temp 1800 ${mytemp} 0.01
fix          3 all nvt temp 1800 1800 0.01

run      1000000
PPPM initialization ...
  G vector (1/distance) = 0.308857
  grid = 72 80 75
  stencil order = 5
  estimated absolute RMS force accuracy = 0.00179063
  estimated relative force accuracy = 0.000124353
  using double precision FFTs
  3d grid and FFT values/proc = 58144 28800
Memory usage per processor = 12.6294 Mbytes
Step PotEng KinEng Press Lx Ly Lz Temp Omsd[1] Omsd[2] Omsd[3] Omsd[4] Crmsd[1] Crmsd[2] Crmsd[3] Crmsd[4] 
       0   -1794860.6    13529.808   -1317.6966    77.130717    89.063572    81.378838    1793.4198            0 2.1133966e-29 5.1027738e-29 7.2161704e-29            0            0            0            0 
    1000   -1794916.5    13604.059   -1317.7423    77.130717    89.063572    81.378838     1803.262  0.033931173  0.035400544  0.046491877   0.11582359  0.027419999  0.028293333    0.0363052  0.092018532 
    2000   -1794885.5    13542.426   -1385.5521    77.130717    89.063572    81.378838    1795.0923  0.035312838   0.03508244  0.045332315   0.11572759  0.027823474  0.027059964  0.034699076  0.089582513 
    3000   -1794830.1    13562.433   -507.03344    77.130717    89.063572    81.378838    1797.7443  0.035945616   0.03550612  0.046643339   0.11809508   0.02802686  0.027064695  0.036348211  0.091439766 
    4000   -1794842.1    13600.688   -1054.9653    77.130717    89.063572    81.378838    1802.8151  0.035678167  0.036050836  0.045868985   0.11759799  0.027464639  0.027386202  0.037181935  0.092032777 
    5000   -1794810.8    13614.498   -779.23741    77.130717    89.063572    81.378838    1804.6456  0.036809561  0.036113039  0.048331859   0.12125446  0.026661517  0.027097732  0.037116252  0.090875501 
    6000   -1794890.4    13497.567   -1807.1959    77.130717    89.063572    81.378838    1789.1461  0.037479118  0.036746596   0.04771478   0.12194049  0.027571571  0.027855227  0.036933964  0.092360761 
    7000   -1794867.5     13561.49   -1453.0532    77.130717    89.063572    81.378838    1797.6193  0.038857341  0.037194287  0.049581359   0.12563299  0.028133408  0.026875334  0.037578707  0.092587449 
    8000   -1794884.5    13587.346   -1454.7418    77.130717    89.063572    81.378838    1801.0465  0.038818963  0.038077511  0.048949631   0.12584611  0.027861447  0.027175182  0.035753101  0.090789731 
    9000   -1794921.4    13510.585   -1361.9673    77.130717    89.063572    81.378838    1790.8717  0.037459346  0.038384019  0.049767994   0.12561136   0.02666974  0.027602028  0.036342842   0.09061461 
   10000   -1794838.4    13566.552   -870.86794    77.130717    89.063572    81.378838    1798.2903  0.038246555  0.038229878  0.050780829   0.12725726  0.027450129  0.027786233  0.038441515  0.093677878 
   11000   -1794916.1    13564.954   -1343.4348    77.130717    89.063572    81.378838    1798.0785  0.037386485  0.037074127  0.049507004   0.12396762  0.026896068  0.027426843  0.037498385  0.091821295 
   12000   -1794859.3    13574.525    -850.8036    77.130717    89.063572    81.378838    1799.3471  0.038875235   0.03870249  0.051554616   0.12913234  0.028065457  0.027688158  0.039754324  0.095507938 
   13000   -1794828.7    13562.991   -1155.2671    77.130717    89.063572    81.378838    1797.8183  0.039763872  0.039152496  0.051310498   0.13022687  0.028189823  0.027315331  0.037511308  0.093016462 
   14000   -1794869.5    13561.222   -1267.8498    77.130717    89.063572    81.378838    1797.5837  0.038502938  0.038839752  0.050784489   0.12812718  0.026972971  0.027182993  0.039297672  0.093453636 
   15000   -1794880.7    13538.097   -1693.2854    77.130717    89.063572    81.378838    1794.5185  0.039897108  0.040094608  0.050898912   0.13089063  0.027358185  0.028100512  0.038158714  0.093617412 
   16000   -1794994.9    13591.492   -1449.8375    77.130717    89.063572    81.378838    1801.5962  0.039677773  0.039531645  0.051637897   0.13084731   0.02733745  0.026947907  0.038453346  0.092738703 
   17000   -1794852.8    13592.975   -870.69088    77.130717    89.063572    81.378838    1801.7928  0.040151366  0.039046511  0.051738254   0.13093613  0.026978994  0.026748788  0.039100511  0.092828293 
   18000   -1794880.6    13575.462   -1094.4247    77.130717    89.063572    81.378838    1799.4713  0.041216484  0.040651227  0.053654719   0.13552243  0.026883924  0.028527546  0.039960386  0.095371857 
   19000   -1794863.3    13654.381   -1296.3001    77.130717    89.063572    81.378838    1809.9324  0.041111254  0.040677272  0.055208285   0.13699681  0.027345779  0.027753447  0.040457699  0.095556925 
   20000   -1794880.7    13590.023   -563.67885    77.130717    89.063572    81.378838    1801.4014  0.041827844  0.041187281  0.054658005   0.13767313  0.027156618  0.028274863  0.039441227  0.094872708 
   21000   -1794896.1    13554.443   -1489.6935    77.130717    89.063572    81.378838    1796.6851  0.043162904  0.041140827  0.054859637   0.13916337    0.0281962  0.027193621  0.039885192  0.095275013 
   22000   -1794913.2    13611.766   -1304.0263    77.130717    89.063572    81.378838    1804.2835  0.041977628  0.041651032  0.055108089   0.13873675  0.027951936  0.027650088  0.039829174  0.095431199 
   23000   -1794833.4    13499.691   -1437.7061    77.130717    89.063572    81.378838    1789.4277  0.042520484  0.041930805  0.055989229   0.14044052  0.026520437  0.027217341  0.039538171  0.093275948 
   24000   -1794894.6    13556.779    -1310.744    77.130717    89.063572    81.378838    1796.9949  0.042774794  0.042046876  0.055884448   0.14070612  0.027432318  0.027341502  0.039677257  0.094451078 
   25000   -1794875.3    13547.169   -1099.8594    77.130717    89.063572    81.378838     1795.721  0.045003552  0.042501229  0.056006195   0.14351098  0.027814125  0.027573417  0.039104722  0.094492264 
   26000   -1794879.2    13614.946   -575.74251    77.130717    89.063572    81.378838    1804.7051  0.044429774  0.042844474  0.057479849    0.1447541  0.027513355  0.027244257  0.039917363  0.094674975 
   27000   -1794849.4    13635.025   -1198.2442    77.130717    89.063572    81.378838    1807.3665  0.045610528  0.044133371  0.057748923   0.14749282  0.028084245  0.027665839  0.039559161  0.095309245 
   28000   -1794941.4     13522.24   -1487.1242    77.130717    89.063572    81.378838    1792.4166   0.04537906  0.045410893  0.059042454   0.14983241  0.027686113   0.02695285   0.03938213  0.094021093 
   29000   -1794868.4    13546.129   -1035.6646    77.130717    89.063572    81.378838    1795.5832  0.046008835  0.046751148  0.060756219    0.1535162   0.02698019  0.027704588  0.039761001  0.094445778 
   30000     -1794819    13658.818    -1028.821    77.130717    89.063572    81.378838    1810.5204  0.047157737  0.046423941  0.062525148   0.15610683  0.027920988  0.027468649  0.041319187  0.096708824 
   31000   -1794848.2    13535.251    -1369.373    77.130717    89.063572    81.378838    1794.1413  0.047092867  0.047616996  0.062397208   0.15710707  0.027813495  0.027357032   0.04025152  0.095422047 
   32000   -1794993.8    13619.386   -1687.9838    77.130717    89.063572    81.378838    1805.2936  0.047755202  0.048448486  0.063285588   0.15948928  0.027308374  0.028510665  0.042063388  0.097882427 
   33000   -1794830.2    13568.953    -1007.102    77.130717    89.063572    81.378838    1798.6086  0.047524936    0.0488887  0.064517927   0.16093156  0.027510555  0.028413691  0.040727992  0.096652238 
   34000   -1794910.1    13517.215   -1194.8768    77.130717    89.063572    81.378838    1791.7505  0.050193629  0.047900846   0.06463642    0.1627309  0.028869273  0.027259458   0.04109455  0.097223281 
   35000   -1794916.4    13511.054   -1736.0843    77.130717    89.063572    81.378838    1790.9339  0.049165978  0.050711907  0.065944065   0.16582195  0.027246122  0.027606447  0.042966108  0.097818677 
   36000   -1794848.2    13557.313   -959.79791    77.130717    89.063572    81.378838    1797.0657   0.05010242  0.050268626  0.064704866   0.16507591  0.027344464  0.027372807  0.041599179  0.096316451 
   37000     -1794808    13561.707   -933.23176    77.130717    89.063572    81.378838     1797.648  0.049904957  0.050472237   0.06656362   0.16694081  0.028056366  0.027562327  0.044043703  0.099662396 
   38000   -1794835.9    13586.924   -951.26092    77.130717    89.063572    81.378838    1800.9906  0.049716403  0.051012705  0.065668628   0.16639774  0.027742454  0.028484889  0.042710478  0.098937822 
   39000   -1794948.1     13530.35   -1381.5231    77.130717    89.063572    81.378838    1793.4916  0.050973669  0.051338454  0.065844844   0.16815697  0.027972182  0.027796205  0.040526827  0.096295213 
   40000   -1794832.9    13660.446   -898.89066    77.130717    89.063572    81.378838    1810.7362  0.051935151  0.051877696   0.06735908   0.17117193  0.027960516  0.027191148  0.042675515  0.097827178 
   41000   -1794988.3    13548.557   -1781.5095    77.130717    89.063572    81.378838    1795.9049  0.051976379  0.052372724  0.067234493    0.1715836  0.027896329  0.027861711  0.042602951  0.098360991 
   42000   -1794901.5    13580.819   -1473.6756    77.130717    89.063572    81.378838    1800.1814  0.051527451  0.052149316   0.06805834   0.17173511  0.027012291  0.027686157   0.04260983  0.097308278 
   43000   -1794934.2    13583.214   -1177.5317    77.130717    89.063572    81.378838    1800.4989  0.052419811  0.052996743  0.068682117   0.17409867  0.027302567  0.027363099  0.041693356  0.096359023 
   44000   -1794987.3    13573.117   -1154.1239    77.130717    89.063572    81.378838    1799.1605  0.053211964  0.053635501  0.068873868   0.17572133  0.027568153  0.028017029   0.04333661  0.098921793 
   45000   -1794855.3    13637.466   -769.52191    77.130717    89.063572    81.378838    1807.6901  0.053234744  0.054054936  0.068712319     0.176002  0.027088943  0.027765455  0.042021685  0.096876083 
   46000   -1794952.3    13549.346   -1839.2645    77.130717    89.063572    81.378838    1796.0096   0.05488499  0.054365584  0.068089897   0.17734047  0.028075258     0.027916  0.042393339  0.098384597 
   47000     -1794881    13642.582   -675.40951    77.130717    89.063572    81.378838    1808.3683  0.054540287  0.054879844  0.071163145   0.18058328  0.027508875  0.027751867  0.044104032  0.099364774 
   48000   -1794875.4    13524.722   -1027.2442    77.130717    89.063572    81.378838    1792.7456  0.055001976   0.05508787  0.071583534   0.18167338  0.027866177  0.028555279  0.043866953   0.10028841 
   49000   -1794854.1    13558.576   -856.47585    77.130717    89.063572    81.378838     1797.233  0.055411404  0.053857925   0.07147305   0.18074238  0.027726784   0.02757357  0.044167262  0.099467616 
   50000   -1794963.4    13588.473   -1464.2336    77.130717    89.063572    81.378838    1801.1959  0.054651053  0.055482565  0.072013871   0.18214749  0.026923804  0.027114056  0.044105915  0.098143775 
   51000     -1794809    13566.226   -1277.4044    77.130717    89.063572    81.378838    1798.2471  0.055205688  0.056272689  0.072471139   0.18394952   0.02699622  0.028424825  0.044251127  0.099672172 
   52000     -1794837    13633.079   -934.27873    77.130717    89.063572    81.378838    1807.1086  0.054836495  0.056208468  0.072579688   0.18362465   0.02784873  0.027199905  0.043525663  0.098574297 
   53000   -1794856.6    13613.529   -1219.5769    77.130717    89.063572    81.378838    1804.5172  0.056360949   0.05869034  0.073173021   0.18822431  0.027807257  0.029067869  0.044834244   0.10170937 
   54000   -1794887.1    13600.676    -1494.875    77.130717    89.063572    81.378838    1802.8135  0.056577102    0.0564579  0.075086761   0.18812176  0.027367864  0.026886104  0.045403373  0.099657341 
   55000     -1794912    13588.397   -1230.5082    77.130717    89.063572    81.378838    1801.1859  0.055695225  0.057640517  0.074524807   0.18786055  0.026716172  0.027499334  0.042928657  0.097144162 
   56000   -1794936.8    13575.888   -1636.0194    77.130717    89.063572    81.378838    1799.5278  0.056066446  0.058401933  0.075280899   0.18974928  0.027006417  0.027760269  0.042829012  0.097595699 
   57000     -1794902    13574.654   -1015.8344    77.130717    89.063572    81.378838    1799.3642    0.0565155  0.056784356  0.074999184   0.18829904  0.027398003  0.026585001  0.043386194  0.097369197 
   58000   -1794887.3    13524.472   -1235.8409    77.130717    89.063572    81.378838    1792.7124  0.056684827  0.059726723  0.075592334   0.19200388  0.027496735  0.028209769  0.044443595    0.1001501 
   59000   -1794900.7     13574.16   -1509.7193    77.130717    89.063572    81.378838    1799.2988  0.057939431  0.059476889  0.078303805   0.19572013  0.027802385  0.027501432  0.044798225   0.10010204 
   60000   -1794923.8    13577.466   -1546.7627    77.130717    89.063572    81.378838     1799.737  0.057783039  0.059793669  0.076999127   0.19457584  0.027217148  0.027483785  0.045036688   0.09973762 
   61000   -1794942.9    13654.162   -1369.2303    77.130717    89.063572    81.378838    1809.9033  0.059391788  0.059172147   0.07720707     0.195771  0.028371198   0.02729558  0.043954444  0.099621222 
   62000   -1794811.3    13558.496   -711.61812    77.130717    89.063572    81.378838    1797.2224  0.059588692  0.059899529  0.078620657   0.19810888  0.027800117  0.027097783  0.045440322   0.10033822 
   63000   -1794917.9    13592.525    -977.2945    77.130717    89.063572    81.378838    1801.7331  0.060285019  0.059968457  0.077644339   0.19789781  0.027540104   0.02754285  0.044593724  0.099676678 
   64000   -1794778.3    13631.766   -397.40917    77.130717    89.063572    81.378838    1806.9346  0.059830097  0.061175996  0.079749168   0.20075526  0.027646358  0.027813313  0.045422113   0.10088178 
   65000   -1794880.4    13616.902   -985.53555    77.130717    89.063572    81.378838    1804.9643  0.060631556  0.062065616  0.079655603   0.20235277  0.027033737  0.027733477  0.045742268   0.10050948 
   66000   -1794915.9    13591.268   -1405.4802    77.130717    89.063572    81.378838    1801.5665  0.061829465  0.060751997  0.078914574   0.20149604  0.027528999  0.027246124  0.045954492   0.10072961 
   67000   -1794918.2    13599.972   -959.64602    77.130717    89.063572    81.378838    1802.7202  0.062672711  0.062170242  0.079084903   0.20392786  0.027627798   0.02809766  0.045145529   0.10087099 
   68000   -1794935.5    13558.316   -1314.5562    77.130717    89.063572    81.378838    1797.1985  0.062632677  0.062309331  0.081548146   0.20649015  0.027179023  0.027827771  0.046488376   0.10149517 
   69000     -1794903    13658.459   -1409.3098    77.130717    89.063572    81.378838    1810.4729  0.064173642   0.06268265  0.082457127   0.20931342  0.027140729  0.027555563  0.046224442   0.10092073 
   70000   -1794815.6    13581.945   -457.68609    77.130717    89.063572    81.378838    1800.3307  0.064076223  0.063034447  0.081956309   0.20906698  0.028209867  0.027266358  0.045697646   0.10117387 
   71000   -1794851.3    13580.773   -1275.8561    77.130717    89.063572    81.378838    1800.1753   0.06334221  0.063805208  0.081868551   0.20901597  0.026999445  0.027699161  0.045414824   0.10011343 
   72000   -1794871.6    13570.792   -1826.1823    77.130717    89.063572    81.378838    1798.8523  0.064204533  0.064404417  0.082653189   0.21126214  0.027347897  0.027595288  0.045804904   0.10074809 
   73000   -1794940.1    13530.718   -1567.3445    77.130717    89.063572    81.378838    1793.5404  0.066088358  0.064152076  0.082060061    0.2123005  0.027809023  0.027902717  0.044250567  0.099962307 
   74000   -1794946.6    13594.184    -2106.293    77.130717    89.063572    81.378838     1801.953  0.063839383  0.065068109  0.082832089   0.21173958   0.02691811  0.027499857  0.044169325  0.098587292 
   75000   -1794940.7    13569.173   -1365.5279    77.130717    89.063572    81.378838    1798.6377  0.065466531   0.06399398  0.083403365   0.21286388  0.027972367  0.027208012  0.044618154  0.099798532 
   76000   -1794905.8    13576.302    -1154.113    77.130717    89.063572    81.378838    1799.5827  0.065751715   0.06590983   0.08414063   0.21580217  0.027100598  0.027331086  0.045365575  0.099797259 
   77000   -1794952.6    13540.586   -1467.0751    77.130717    89.063572    81.378838    1794.8484  0.065532841   0.06661214  0.084309346   0.21645433  0.027085883  0.027960185  0.045219407   0.10026548 
   78000     -1794916    13612.824   -1317.9535    77.130717    89.063572    81.378838    1804.4237  0.066640657  0.067186718  0.084882818   0.21871019  0.026843919  0.028243589  0.045722322   0.10080983 
   79000   -1794897.5    13519.879   -1296.5914    77.130717    89.063572    81.378838    1792.1036  0.066579269  0.065171806  0.085981053   0.21773213  0.027431175  0.027140892    0.0459009   0.10047297 
   80000   -1794898.1    13540.848   -1523.0982    77.130717    89.063572    81.378838    1794.8831  0.068284963  0.067091328   0.08589281    0.2212691   0.02790488  0.027899686  0.046101583   0.10190615 
   81000   -1794909.1    13546.625   -1567.5891    77.130717    89.063572    81.378838    1795.6489  0.066705008  0.067179102  0.086640847   0.22052496  0.027047252  0.027794895  0.045364948    0.1002071 
   82000   -1794908.8    13616.264   -1138.4445    77.130717    89.063572    81.378838    1804.8797  0.067779497  0.066561887  0.087047243   0.22138863  0.027787999   0.02697762   0.04631951   0.10108513 
   83000   -1794895.8    13612.844   -1246.7895    77.130717    89.063572    81.378838    1804.4265  0.068612117  0.067555813  0.086626704   0.22279463  0.028178708  0.027542855  0.045495398   0.10121696 
   84000   -1794926.7    13578.713   -1337.5987    77.130717    89.063572    81.378838    1799.9023  0.067216434   0.06717513  0.086819552   0.22121112  0.027024498  0.027738211  0.046298668   0.10106138 
   85000   -1794889.4    13591.285   -944.94425    77.130717    89.063572    81.378838    1801.5687  0.069020824  0.068227334  0.086205486   0.22345365  0.027543107  0.028036609  0.044550356   0.10013007 
   86000   -1794926.1    13558.373   -1478.9856    77.130717    89.063572    81.378838    1797.2061  0.070342098  0.067589621  0.086687116   0.22461883  0.027907745  0.026674746  0.044390577  0.098973068 
   87000   -1794961.9    13524.999   -1645.9709    77.130717    89.063572    81.378838    1792.7824  0.069206902  0.068617208  0.087953658   0.22577777  0.027421953  0.027251001  0.045285922  0.099958876 
   88000   -1794932.8    13607.789   -1064.7008    77.130717    89.063572    81.378838    1803.7563   0.06841307  0.070073583  0.088510868   0.22699752  0.026887274  0.027859242  0.044517048  0.099263565 
   89000   -1794953.6    13549.864   -1685.9639    77.130717    89.063572    81.378838    1796.0782  0.068905551  0.069579523  0.087760867   0.22624594  0.027354401  0.027551516  0.043250077  0.098155994 
   90000   -1795003.5    13608.459   -1989.0326    77.130717    89.063572    81.378838    1803.8452  0.070898214  0.069745531  0.089009294   0.22965304   0.02751719  0.027502393  0.043881385  0.098900968 
   91000   -1794836.8    13572.982   -1184.9038    77.130717    89.063572    81.378838    1799.1425  0.070120108  0.070375179  0.090220626   0.23071591  0.028215243  0.028068395  0.044669222   0.10095286 
   92000   -1794921.8    13589.576   -1257.5546    77.130717    89.063572    81.378838    1801.3422   0.07001497  0.069936668  0.089439508   0.22939115  0.027858943  0.027404976  0.044386524  0.099650443 
   93000   -1795018.8    13470.859   -1931.6893    77.130717    89.063572    81.378838    1785.6058  0.068926394  0.069618572  0.089625945   0.22817091  0.027355078  0.027121352  0.043480131  0.097956562 
   94000   -1794871.6        13633   -1545.6174    77.130717    89.063572    81.378838    1807.0982  0.070204064  0.070418328  0.090401344   0.23102374  0.027634491  0.027490741   0.04424343  0.099368662 
   95000   -1794964.5    13587.688   -1881.7776    77.130717    89.063572    81.378838    1801.0919  0.071194055  0.070147918  0.090837503   0.23217948  0.028107192  0.027504486  0.044773355   0.10038503 
   96000   -1794902.5    13569.137   -1371.2825    77.130717    89.063572    81.378838    1798.6329  0.070606065  0.071766782  0.091805033   0.23417788  0.027002346  0.027891181  0.044661002  0.099554529 
   97000   -1794941.8    13594.906   -1085.8602    77.130717    89.063572    81.378838    1802.0486  0.070490065    0.0709071  0.092599171   0.23399634  0.027364803  0.026465871  0.044726827  0.098557501 
   98000   -1794882.5    13536.831   -1156.6267    77.130717    89.063572    81.378838    1794.3507  0.072160631   0.07135741  0.092427096   0.23594514  0.027688602  0.027148831  0.043907781  0.098745215 
   99000   -1794906.4    13584.268   -1612.1535    77.130717    89.063572    81.378838    1800.6386   0.07233933  0.071794195  0.092704571    0.2368381  0.027201062   0.02702126  0.042660391  0.096882713 
  100000   -1794851.4    13582.187   -882.26574    77.130717    89.063572    81.378838    1800.3627  0.072394974  0.072162971  0.092318165   0.23687611  0.027200746  0.027466993  0.041699334  0.096367073 
  101000     -1794977    13569.943   -1783.6538    77.130717    89.063572    81.378838    1798.7397  0.073163155   0.07231044  0.092432205    0.2379058  0.027745713  0.027536776  0.042208964  0.097491453 
  102000   -1794966.4    13564.782   -1376.6166    77.130717    89.063572    81.378838    1798.0556  0.073419536  0.073259531  0.095661782   0.24234085   0.02701569   0.02710998  0.043855405  0.097981075 
  103000   -1794839.3    13533.483   -1574.4936    77.130717    89.063572    81.378838    1793.9069  0.074678271  0.074009598  0.093197822   0.24188569  0.027480941  0.027726718  0.042851141  0.098058799 
  104000   -1794981.2    13548.643   -1803.5512    77.130717    89.063572    81.378838    1795.9164  0.075505838  0.074168745   0.09671319   0.24638777  0.028116325   0.02708716  0.043119652  0.098323136 
  105000   -1794996.2    13562.592   -1909.9942    77.130717    89.063572    81.378838    1797.7654   0.07580061  0.074263422  0.095174206   0.24523824  0.027929746  0.028139949  0.043566973  0.099636669 
  106000   -1794866.4    13572.746   -1011.9206    77.130717    89.063572    81.378838    1799.1114  0.075281081  0.073741918  0.094673326   0.24369633  0.027429368  0.027834978  0.042103133   0.09736748 
  107000   -1794848.4    13663.275   -1199.3844    77.130717    89.063572    81.378838    1811.1113  0.076920575  0.075507831    0.0969187   0.24934711  0.028892289  0.027739015  0.046086327   0.10271763 
  108000     -1794897    13658.392   -935.17749    77.130717    89.063572    81.378838     1810.464   0.07628515  0.074386825  0.097029535   0.24770151  0.028378348   0.02764103  0.043932782   0.09995216 
  109000   -1795047.5    13572.945   -1732.9254    77.130717    89.063572    81.378838    1799.1377  0.077063203  0.074641846  0.098641499   0.25034655  0.028364231  0.027828196  0.045570671    0.1017631 
  110000   -1794834.3    13590.716   -1424.8435    77.130717    89.063572    81.378838    1801.4933   0.07763914  0.076311899   0.09935824   0.25330928  0.027713124  0.027316898  0.044097699   0.09912772 
  111000   -1794924.4    13630.478   -1271.4772    77.130717    89.063572    81.378838    1806.7639  0.077316554  0.076562501  0.098556905   0.25243596  0.027451983  0.027685988   0.04397179  0.099109761 
  112000   -1794837.5    13569.116   -1148.4816    77.130717    89.063572    81.378838    1798.6301  0.077176365   0.07518797   0.10032989   0.25269422  0.028167342  0.027324599  0.045717204   0.10120915 
  113000   -1794932.1    13525.021   -2075.8909    77.130717    89.063572    81.378838    1792.7853  0.078048104  0.075499703    0.1014616    0.2550094   0.02790236  0.027257293  0.045976736   0.10113639 
  114000   -1794929.2    13582.338   -1487.5805    77.130717    89.063572    81.378838    1800.3828  0.077612509   0.07791531   0.10094429    0.2564721  0.027478477  0.028161667  0.048087586   0.10372773 
  115000   -1794960.1    13535.681   -1558.7786    77.130717    89.063572    81.378838    1794.1982  0.079167032  0.076867786   0.10220027   0.25823509  0.027581068  0.028766122  0.046695059   0.10304225 
  116000   -1794867.3    13552.336   -1498.5131    77.130717    89.063572    81.378838    1796.4059  0.079782989  0.079461231   0.10240769   0.26165191   0.02795681  0.028568655  0.047484099   0.10400956 
  117000   -1794944.6    13610.207   -1019.9063    77.130717    89.063572    81.378838     1804.077  0.080145613  0.079874628   0.10342313   0.26344337  0.027070774  0.028279914  0.047563109    0.1029138 
  118000   -1794896.5    13587.595   -1136.2639    77.130717    89.063572    81.378838    1801.0796  0.080213235  0.080110234   0.10410882   0.26443229   0.02744762  0.028368089  0.046602855   0.10241856 
  119000   -1794852.3    13583.936   -983.99898    77.130717    89.063572    81.378838    1800.5946  0.082033323  0.079513553   0.10461298   0.26615986   0.02870507  0.028606866  0.048118486   0.10543042 
  120000   -1794864.1     13568.81   -899.24533    77.130717    89.063572    81.378838    1798.5896  0.081566592  0.079270125   0.10281476   0.26365147  0.028426712  0.028447957  0.045143032    0.1020177 
  121000   -1794863.3    13535.592     -1033.92    77.130717    89.063572    81.378838    1794.1864  0.081696843  0.080749144   0.10410344   0.26654943    0.0288819  0.028436931  0.046887738   0.10420657 
  122000   -1795001.2    13559.826   -1949.3996    77.130717    89.063572    81.378838    1797.3988  0.082188439  0.081798282   0.10473207   0.26871879  0.028497808  0.028464552  0.046070379   0.10303274 
  123000   -1794884.9    13518.257   -496.39647    77.130717    89.063572    81.378838    1791.8887  0.081425164  0.080098523   0.10618602   0.26770971  0.027475374  0.027344694  0.047147498   0.10196757 
  124000   -1794986.8    13549.045   -1593.1695    77.130717    89.063572    81.378838    1795.9697  0.081851659  0.080682767   0.10538332   0.26791775  0.027295715  0.027532107  0.046372325   0.10120015 
  125000   -1794828.1    13540.904   -1278.2511    77.130717    89.063572    81.378838    1794.8905  0.081998756  0.080511197   0.10762233   0.27013228   0.02787305  0.027835147  0.046930574   0.10263877 
  126000   -1794894.2    13538.992   -1502.9999    77.130717    89.063572    81.378838    1794.6371  0.082259167  0.081315801   0.10578915   0.26936411  0.027459924  0.028004694   0.04540588    0.1008705 
  127000   -1794807.9    13552.685   -602.36342    77.130717    89.063572    81.378838    1796.4522  0.083388716  0.081608722   0.10799917    0.2729966  0.027310161  0.027800141  0.046696977   0.10180728 
  128000   -1794932.2    13644.849   -938.59108    77.130717    89.063572    81.378838    1808.6688  0.083696371  0.081026343   0.10710749   0.27183021  0.027548088  0.027754012  0.045063129   0.10036523 
  129000   -1794923.4    13594.178   -1448.4172    77.130717    89.063572    81.378838    1801.9522  0.084883287  0.081257569   0.10744231   0.27358317  0.028117611  0.027355962  0.046487256   0.10196083 
  130000   -1794815.9    13581.297   -68.535846    77.130717    89.063572    81.378838    1800.2448  0.083292432   0.08170377   0.10792305   0.27291925  0.028318851  0.028159258  0.046213075   0.10269118 
  131000   -1794887.5    13544.685   -1237.0237    77.130717    89.063572    81.378838    1795.3918  0.083146999   0.08211235    0.1075806   0.27283995  0.027351039   0.02751092  0.046584434   0.10144639 
  132000   -1794952.2    13592.971   -1661.9655    77.130717    89.063572    81.378838    1801.7922  0.084169271  0.081965207   0.11115714   0.27729162  0.027273432  0.027366737  0.048102063   0.10274223 
  133000   -1794928.8    13671.717   -1240.4379    77.130717    89.063572    81.378838    1812.2302  0.084828401  0.082438093   0.10959459   0.27686109  0.027764386  0.027951201  0.048073108   0.10378869 
  134000   -1794841.1    13512.493   -1264.8068    77.130717    89.063572    81.378838    1791.1246  0.086193815  0.083781166   0.11115459   0.28112957  0.029029569  0.027601162  0.048906554   0.10553728 
  135000   -1794854.6    13638.732   -911.28883    77.130717    89.063572    81.378838    1807.8579   0.08627739  0.084236012   0.11105225   0.28156566  0.027938816  0.028300133   0.04797606   0.10421501 
  136000     -1794852    13569.523   -978.50359    77.130717    89.063572    81.378838     1798.684   0.08480949  0.083303333    0.1119693   0.28008212  0.027992475  0.028153235  0.049040403   0.10518611 
  137000   -1794881.6    13632.221   -437.26434    77.130717    89.063572    81.378838     1806.995  0.084925859  0.084199813   0.11238625   0.28151192  0.027436906  0.028368081  0.048904709    0.1047097 
  138000   -1794869.2    13618.097   -978.67168    77.130717    89.063572    81.378838    1805.1227  0.085114553  0.084226232   0.11212385   0.28146464  0.027524696  0.027681607  0.048819717   0.10402602 
  139000   -1794953.9    13565.813   -1767.6997    77.130717    89.063572    81.378838    1798.1923  0.085903229  0.084097552   0.11271902    0.2827198  0.027806667  0.027765122  0.049794864   0.10536665 
  140000   -1794833.5    13575.608   -851.13972    77.130717    89.063572    81.378838    1799.4907  0.085760285  0.084956149   0.11179336   0.28250979  0.027877488   0.02779373   0.04885586   0.10452708 
  141000   -1794909.7    13545.607   -919.92141    77.130717    89.063572    81.378838    1795.5139  0.086734229  0.085381198   0.11263195   0.28474738  0.027652424  0.028522453  0.050538568   0.10671344 
  142000   -1794910.3    13499.865    -1617.738    77.130717    89.063572    81.378838    1789.4507  0.086221251  0.085710204   0.11320431   0.28513577  0.027711169  0.028787575  0.049422914   0.10592166 
  143000     -1794973    13602.583   -1856.8329    77.130717    89.063572    81.378838    1803.0663  0.086867407  0.085273935   0.11195522   0.28409656  0.027633008  0.027562988  0.045734372   0.10093037 
  144000   -1794909.3    13589.049   -1495.8279    77.130717    89.063572    81.378838    1801.2723  0.087204436  0.084054058    0.1126672   0.28392569  0.027491475  0.028390665  0.048722658    0.1046048 
  145000     -1794925    13643.718   -1336.7817    77.130717    89.063572    81.378838    1808.5189  0.087024956  0.085678177   0.11544778   0.28815091  0.027572613  0.028173772  0.049423167   0.10516955 
  146000     -1794898    13547.094   -1433.9976    77.130717    89.063572    81.378838     1795.711  0.088039962  0.084987415   0.11572991   0.28875728  0.027705717  0.028342956  0.049964916   0.10601359 
  147000   -1794922.2    13614.549   -538.09266    77.130717    89.063572    81.378838    1804.6525  0.088268016  0.084914512    0.1141601   0.28734263  0.027511305  0.027615132  0.048599631   0.10372607 
  148000   -1794881.6    13564.448   -845.37183    77.130717    89.063572    81.378838    1798.0113  0.087068166   0.08527146   0.11548885   0.28782848  0.026889252   0.02799453   0.04777865   0.10266243 
  149000   -1794812.6    13536.078   -892.90981    77.130717    89.063572    81.378838    1794.2508   0.08819896  0.085383032   0.11644884   0.29003083  0.027802861  0.028181879  0.048750396   0.10473514 
  150000   -1794909.3    13573.407    -1317.455    77.130717    89.063572    81.378838     1799.199  0.087081895  0.087117399   0.11644992   0.29064921  0.027264774  0.027835473  0.049082895   0.10418314 
  151000   -1794845.1    13572.655   -1132.3361    77.130717    89.063572    81.378838    1799.0993  0.088118966  0.088439416   0.11720842    0.2937668  0.027485607  0.029329508  0.049149702   0.10596482 
  152000     -1794905    13589.185   -730.06291    77.130717    89.063572    81.378838    1801.2904  0.088904516  0.087247795   0.11705817   0.29321048  0.027805758  0.028267665  0.049468722   0.10554215 
  153000   -1794922.2     13564.46   -1401.2126    77.130717    89.063572    81.378838     1798.013  0.086793457  0.087590282   0.11589147   0.29027521  0.027094592  0.029100632  0.048093677    0.1042889 
  154000   -1794905.5    13569.013   -696.42993    77.130717    89.063572    81.378838    1798.6165  0.088072524  0.088959007   0.11730603   0.29433756  0.027980437  0.028459942  0.050087999   0.10652838 
  155000   -1794879.3    13550.445   -968.73698    77.130717    89.063572    81.378838    1796.1552  0.088021128  0.089356328   0.11707156   0.29444901  0.027118594  0.029301336  0.048601684   0.10502161 
  156000   -1794901.3    13625.532    -1576.734    77.130717    89.063572    81.378838    1806.1083  0.088263024  0.089253396   0.11705136   0.29456778  0.027351062  0.028378603  0.048502932    0.1042326 
  157000   -1794852.5    13625.124   -713.05737    77.130717    89.063572    81.378838    1806.0541  0.088456691  0.089539319   0.11864635   0.29664236  0.027980168  0.028395714  0.047759309   0.10413519 
  158000   -1794948.2    13479.762   -1823.4227    77.130717    89.063572    81.378838     1786.786  0.088454153   0.08877994   0.11849627   0.29573036  0.026519028  0.028401533  0.047257132   0.10217769 
  159000   -1794808.6    13606.723   -1006.0736    77.130717    89.063572    81.378838     1803.615  0.090694716  0.088672117   0.12027848   0.29964531  0.027414262  0.027479912  0.047409808   0.10230398 
  160000   -1794883.8    13537.469   -1062.5008    77.130717    89.063572    81.378838    1794.4352    0.0912026  0.090030482   0.12252658   0.30375967  0.027713424  0.027963893  0.048983659   0.10466098 
  161000   -1794853.3    13528.466   -501.04595    77.130717    89.063572    81.378838    1793.2419  0.093039704  0.092383866   0.12151177   0.30693534  0.028371183  0.029069603  0.049111462   0.10655225 
  162000   -1794957.2    13552.456   -1688.5628    77.130717    89.063572    81.378838    1796.4219  0.092740247  0.089915773   0.12255683   0.30521285  0.028584704  0.027117016  0.050052218   0.10575394 
  163000   -1794853.4    13619.109   -795.69272    77.130717    89.063572    81.378838    1805.2569  0.092512272  0.090594715    0.1222835   0.30539049  0.027614027  0.027986125  0.049185628   0.10478578 
  164000   -1794926.4    13616.878   -1265.3186    77.130717    89.063572    81.378838    1804.9612  0.092525837  0.091713018   0.12157569   0.30581455  0.028454156  0.028386187  0.049216743   0.10605709 
  165000   -1794878.1    13533.675   -1074.3045    77.130717    89.063572    81.378838    1793.9323  0.092430516  0.092335704   0.12084965   0.30561587  0.027729756  0.027863685  0.049032727   0.10462617 
  166000   -1794884.3     13542.72   -1442.7554    77.130717    89.063572    81.378838    1795.1312  0.092231907  0.091590475   0.12256587   0.30638825  0.028152495  0.027176455  0.049185096   0.10451405 
  167000   -1794856.5    13474.007   -1048.8072    77.130717    89.063572    81.378838    1786.0232  0.092770933  0.092471402   0.12387045   0.30911279  0.028019462  0.028757078  0.052743542   0.10952008 
  168000   -1794919.2     13596.53   -1236.5397    77.130717    89.063572    81.378838     1802.264  0.093359092  0.092545038   0.12304311   0.30894724  0.028028266  0.028602873  0.050448239   0.10707938 
  169000   -1794998.5    13580.398   -1603.7094    77.130717    89.063572    81.378838    1800.1256  0.091534428   0.09192072   0.12304017   0.30649532  0.026402902  0.028088931  0.050711075   0.10520291 
  170000     -1794905    13552.038   -1431.2979    77.130717    89.063572    81.378838    1796.3664  0.092519201  0.092793928   0.12423957    0.3095527  0.028056192  0.029279099  0.050280151   0.10761544 
  171000   -1794849.2    13560.213   -1003.7472    77.130717    89.063572    81.378838      1797.45  0.094170408   0.09299098   0.12460426   0.31176565  0.028636388  0.028584433  0.050886112   0.10810693 
  172000   -1794963.6    13573.527   -1456.4933    77.130717    89.063572    81.378838    1799.2148  0.093059864  0.091518749   0.12277203   0.30735064  0.027958954  0.027538873  0.049447826   0.10494565 
  173000   -1794883.3    13552.208   -1241.8237    77.130717    89.063572    81.378838    1796.3889  0.093380059  0.092740467   0.12526941   0.31138993  0.027445525  0.028215282  0.050092445   0.10575325 
  174000   -1794967.8    13656.128   -1562.9317    77.130717    89.063572    81.378838    1810.1639  0.093476246  0.092637831   0.12351961   0.30963369  0.028096739  0.028505999  0.050483202   0.10708594 
  175000   -1794893.6    13558.617   -867.96026    77.130717    89.063572    81.378838    1797.2385  0.094974244  0.091877716   0.12497724    0.3118292  0.028198413  0.027853022  0.049210949   0.10526238 
  176000   -1794959.5    13535.106   -1489.0009    77.130717    89.063572    81.378838     1794.122  0.093641138  0.092987343   0.12544469   0.31207317  0.027977563  0.028566505  0.048702207   0.10524628 
  177000   -1794980.4    13599.488    -1627.179    77.130717    89.063572    81.378838     1802.656  0.093975088    0.0933164   0.12429767   0.31158916  0.027754265  0.028540521  0.048133975   0.10442876 
  178000   -1794892.1    13579.038   -1574.5379    77.130717    89.063572    81.378838    1799.9454  0.094352041  0.094091692   0.12615713   0.31460087  0.027137715  0.028131992  0.049265242   0.10453495 
  179000     -1794888    13622.424   -1387.8205    77.130717    89.063572    81.378838    1805.6963  0.095216857  0.095382095   0.12682368   0.31742264  0.027260488  0.029214397  0.050307822   0.10678271 
  180000   -1794781.2    13584.213   -471.57379    77.130717    89.063572    81.378838    1800.6314  0.095928258  0.095080488   0.12906606   0.32007481  0.027178726  0.028004419  0.050738023   0.10592117 
  181000   -1794864.8    13561.686    -1320.638    77.130717    89.063572    81.378838    1797.6452   0.09549987  0.096047714   0.12763506   0.31918265  0.027353115  0.028076672  0.050078185   0.10550797 
  182000   -1794828.6    13543.294   -602.37734    77.130717    89.063572    81.378838    1795.2073  0.096720156  0.096017879   0.12871039   0.32144842  0.027475193  0.027554857  0.050254944   0.10528499 
  183000   -1794944.5    13620.103   -1388.7922    77.130717    89.063572    81.378838    1805.3886   0.09721641  0.095455566   0.12968096   0.32235294  0.027765358  0.027550994  0.051617787   0.10693414 
  184000   -1794942.9    13549.666   -1741.9276    77.130717    89.063572    81.378838     1796.052  0.096811104  0.096318893   0.13047925   0.32360925  0.027409047  0.027914772  0.050334533   0.10565835 
  185000   -1794928.8    13532.125   -1531.0045    77.130717    89.063572    81.378838    1793.7269  0.097596207  0.097376195   0.12949055   0.32446296  0.027962598  0.028198943  0.050880809   0.10704235 
  186000     -1794890    13564.778   -1288.4135    77.130717    89.063572    81.378838    1798.0551  0.098328377  0.096565363   0.13019932   0.32509306  0.027111861  0.027903448  0.049350959   0.10436627 
  187000   -1794847.2    13641.737   -444.45412    77.130717    89.063572    81.378838    1808.2562  0.099124641  0.097378152   0.13118474   0.32768753  0.028465062   0.02852511  0.049559412   0.10654958 
  188000   -1794944.5    13643.713   -1420.0296    77.130717    89.063572    81.378838    1808.5182   0.09950225  0.099221856   0.13245927   0.33118338  0.028479589  0.028317454  0.051081922   0.10787897 
  189000   -1794911.7    13611.159   -1269.5516    77.130717    89.063572    81.378838     1804.203  0.099292081  0.097906664   0.13077226     0.327971   0.02783402   0.02743405  0.049537228    0.1048053 
  190000   -1794867.7    13596.526   -956.51929    77.130717    89.063572    81.378838    1802.2634  0.099323699   0.10019297   0.13445927   0.33397593   0.02720244  0.027951983  0.051158562   0.10631299 
  191000   -1794952.9    13597.897   -1799.6529    77.130717    89.063572    81.378838    1802.4452   0.10056688   0.10029526   0.13423328   0.33509542  0.027983101  0.028119833  0.049250315   0.10535325 
  192000   -1794914.2    13513.775   -1083.6534    77.130717    89.063572    81.378838    1791.2945   0.10015396  0.098823622   0.13361835   0.33259593  0.027644367  0.027601107  0.048502872   0.10374835 
  193000   -1794873.4    13566.751   -1261.5485    77.130717    89.063572    81.378838    1798.3166   0.10131643   0.10011082   0.13354969   0.33497695  0.027815367  0.028546819  0.047950173   0.10431236 
  194000   -1794917.8    13588.268   -995.23749    77.130717    89.063572    81.378838    1801.1688   0.10177101    0.1007336   0.13619397   0.33869858  0.027217884  0.028452648  0.048663185   0.10433372 
  195000   -1794847.2    13620.637   -1145.6135    77.130717    89.063572    81.378838    1805.4594   0.10206641   0.10192513   0.13642279   0.34041432  0.026949492  0.028651018  0.049343087    0.1049436 
  196000   -1794918.8    13465.189   -1321.3579    77.130717    89.063572    81.378838    1784.8543   0.10235224   0.10096946   0.13579742   0.33911912  0.027568636  0.028285855  0.049836505     0.105691 
  197000   -1794912.6    13531.726   -1371.3751    77.130717    89.063572    81.378838     1793.674   0.10321856   0.10266812   0.13708843    0.3429751  0.027651859  0.029470989  0.051017255    0.1081401 
  198000   -1794936.2    13623.512   -923.67299    77.130717    89.063572    81.378838    1805.8406   0.10361732   0.10193193   0.13783688   0.34338612  0.028352008  0.027591432  0.050473903   0.10641734 
  199000   -1794929.7    13523.766   -1628.4344    77.130717    89.063572    81.378838    1792.6188   0.10283132   0.10233863   0.13856571   0.34373566  0.027173496  0.027288584  0.051610402   0.10607248 
  200000   -1794929.8    13621.164    -1318.557    77.130717    89.063572    81.378838    1805.5292   0.10300011   0.10267066   0.13770796   0.34337873   0.02752542  0.027516982  0.050494194    0.1055366 
  201000   -1794930.3     13633.38   -1282.2469    77.130717    89.063572    81.378838    1807.1485    0.1047671   0.10278933   0.13878322   0.34633966  0.027965043  0.027780533  0.051810517   0.10755609 
  202000   -1794955.3    13633.622   -1863.0063    77.130717    89.063572    81.378838    1807.1806   0.10463154   0.10368991   0.13906838   0.34738982  0.028372261  0.027557933  0.051686428   0.10761662 
  203000     -1794859    13661.344   -680.10281    77.130717    89.063572    81.378838    1810.8553   0.10363772   0.10346285   0.13806804   0.34516862  0.027296612  0.027950753  0.050065254   0.10531262 
  204000   -1794837.6    13558.669   -735.55618    77.130717    89.063572    81.378838    1797.2454   0.10363494    0.1048715   0.13974905   0.34825549  0.027335348  0.028384033  0.052090155   0.10780954 
  205000   -1794837.1    13637.282   -926.67025    77.130717    89.063572    81.378838    1807.6658   0.10470153   0.10452915   0.13916231   0.34839299  0.027465457  0.027777972  0.052979527   0.10822296 
  206000   -1794780.2    13623.418   -540.04857    77.130717    89.063572    81.378838    1805.8281   0.10514199   0.10623201   0.14016446   0.35153846  0.028448988  0.027104255  0.054269765   0.10982301 
  207000   -1794946.8     13529.71   -1746.7875    77.130717    89.063572    81.378838    1793.4067   0.10392602   0.10786678   0.14060422   0.35239702  0.027553348   0.02752302  0.052994875   0.10807124 
  208000   -1794867.5    13610.189   -666.09744    77.130717    89.063572    81.378838    1804.0745   0.10479554   0.10972282   0.14079952   0.35531788  0.027214567  0.027769628  0.053874769   0.10885896 
  209000   -1794899.3    13540.938   -1170.9844    77.130717    89.063572    81.378838    1794.8951   0.10503836   0.11021712   0.14122744   0.35648293  0.027684595  0.028406304  0.052182238   0.10827314 
  210000     -1794962    13548.675   -1635.0707    77.130717    89.063572    81.378838    1795.9206   0.10461105   0.10955416   0.14054739   0.35471261  0.027166944  0.028077528  0.050436194   0.10568067 
  211000   -1794898.7    13638.107   -896.36712    77.130717    89.063572    81.378838    1807.7751   0.10506441   0.10928988   0.14191534   0.35626963   0.02832738  0.028456097  0.052137563   0.10892104 
  212000   -1794860.5    13526.659   -1561.1742    77.130717    89.063572    81.378838    1793.0023   0.10581674   0.10873237   0.14152502   0.35607413  0.027933695  0.027666482  0.050936199   0.10653638 
  213000   -1794943.8    13507.249   -1340.8834    77.130717    89.063572    81.378838    1790.4294   0.10549227   0.10957064   0.14317828   0.35824119  0.027095842   0.02768082  0.052567783   0.10734445 
  214000   -1794941.4     13593.23   -1153.0218    77.130717    89.063572    81.378838    1801.8265   0.10594743   0.11150321   0.14228241   0.35973305  0.027951866  0.028302463  0.050103049   0.10635738 
  215000   -1794834.4    13578.096   -170.86051    77.130717    89.063572    81.378838    1799.8205   0.10781966   0.11067452   0.14352817   0.36202235  0.027649411  0.027819302  0.051058167   0.10652688 
  216000   -1794924.8    13586.661   -1123.0191    77.130717    89.063572    81.378838    1800.9558   0.10840318   0.10971806   0.14392217    0.3620434   0.02751317  0.027649265  0.050055507   0.10521794 
  217000   -1794864.7    13550.454   -1238.5518    77.130717    89.063572    81.378838    1796.1565   0.10924706   0.11164296   0.14390266   0.36479269  0.028116077  0.028967798  0.049925233   0.10700911 
  218000   -1794871.6    13612.038   -981.68809    77.130717    89.063572    81.378838    1804.3196   0.10940756   0.11191617   0.14337346    0.3646972  0.028031523  0.028659977  0.049635912   0.10632741 
  219000   -1794827.5    13633.509   -90.311063    77.130717    89.063572    81.378838    1807.1657   0.10860293   0.11301583   0.14406169   0.36568044  0.027386767  0.028096115  0.049394995   0.10487788 
  220000   -1794927.3    13519.034   -1360.1879    77.130717    89.063572    81.378838    1791.9916   0.11042358   0.11242392   0.14760192   0.37044942  0.028329028   0.02790358  0.052522648   0.10875526 
  221000   -1794939.6    13603.494   -1497.5656    77.130717    89.063572    81.378838    1803.1871   0.11026374   0.11300665   0.14458211   0.36785249  0.028010504   0.02786723  0.049685105   0.10556284 
  222000   -1794934.3    13624.167    -1197.998    77.130717    89.063572    81.378838    1805.9274   0.10950173   0.11443001   0.14850085    0.3724326  0.027422029  0.028595175   0.05254035   0.10855755 
  223000   -1794904.9    13590.333   -1752.7334    77.130717    89.063572    81.378838    1801.4425   0.11175116   0.11361668   0.14760552   0.37297336  0.027270563  0.028080196  0.050724305   0.10607506 
  224000   -1794911.7    13534.334   -1491.2748    77.130717    89.063572    81.378838    1794.0197   0.11134775   0.11373717   0.14787166   0.37295659  0.027674255  0.027903273  0.051821062   0.10739859 
  225000   -1794910.4    13518.292   -1387.4675    77.130717    89.063572    81.378838    1791.8932   0.11292369   0.11397914   0.14719831   0.37410114  0.028030685  0.028106661   0.05061817   0.10675552 
  226000   -1794886.7    13500.626   -1612.6799    77.130717    89.063572    81.378838    1789.5516   0.11225283   0.11429925   0.14867956   0.37523165  0.027230152  0.028438618  0.051518327    0.1071871 
  227000   -1794930.3    13477.673    -1639.498    77.130717    89.063572    81.378838     1786.509     0.111937   0.11391113   0.14731151   0.37315964  0.027205518  0.028191203  0.051016179    0.1064129 
  228000   -1794977.8    13614.861   -1591.9594    77.130717    89.063572    81.378838    1804.6938   0.11277079   0.11484627   0.14738781   0.37500487  0.027951032  0.028536455  0.050384841   0.10687233 
  229000   -1794877.8    13602.921   -1180.9294    77.130717    89.063572    81.378838    1803.1112   0.11344474   0.11672017   0.14895238    0.3791173   0.02820992  0.028715175  0.051845592   0.10877069 
  230000   -1794872.8    13603.243   -1069.5055    77.130717    89.063572    81.378838    1803.1538   0.11296436   0.11536253   0.14775848   0.37608538   0.02766784  0.028260569  0.050228408   0.10615682 
  231000   -1794848.8    13568.739   -952.97768    77.130717    89.063572    81.378838    1798.5801   0.11354702   0.11666455   0.14990486   0.38011643  0.026949944  0.028303496  0.050672148   0.10592559 
  232000   -1794867.4    13505.846   -1247.9934    77.130717    89.063572    81.378838    1790.2434   0.11358491   0.11631712   0.14947935   0.37938139  0.027407723  0.027987146  0.049476109   0.10487098 
  233000   -1794868.6    13541.948    -694.0528    77.130717    89.063572    81.378838    1795.0289   0.11519694   0.11719821   0.14971889   0.38211403  0.029121322  0.028479924  0.050041714   0.10764296 
  234000   -1794857.7    13559.434   -1151.8664    77.130717    89.063572    81.378838    1797.3467   0.11337986   0.11751981   0.14951773    0.3804174  0.027069617  0.027739042  0.048261607   0.10307027 
  235000   -1794871.8     13469.04   -1495.4044    77.130717    89.063572    81.378838    1785.3647   0.11505923   0.11739645   0.15006198   0.38251767  0.027717393  0.028526121  0.049812131   0.10605565 
  236000   -1794946.1    13514.328   -1692.5884    77.130717    89.063572    81.378838    1791.3678   0.11457989   0.11725126   0.15115994   0.38299109  0.027499907  0.028495884  0.048750425   0.10474622 
  237000   -1794987.9    13580.461   -1501.9807    77.130717    89.063572    81.378838     1800.134   0.11550644   0.11755391    0.1512974   0.38435775  0.028192276  0.027758215  0.048737035   0.10468753 
  238000   -1794998.1    13600.249   -1650.1368    77.130717    89.063572    81.378838    1802.7569   0.11431934   0.11810635   0.14885902    0.3812847  0.027689053  0.028054201  0.049101788   0.10484504 
  239000   -1794955.8    13567.533   -1051.1137    77.130717    89.063572    81.378838    1798.4203   0.11451481   0.11779234   0.15045993   0.38276708  0.027476727  0.027974572  0.049648795   0.10510009 
  240000   -1794894.3    13657.993    -572.2072    77.130717    89.063572    81.378838     1810.411   0.11486815   0.11909715   0.15281635   0.38678164  0.027030087  0.027902866  0.049591911   0.10452486 
  241000   -1794902.6    13565.179   -1655.7794    77.130717    89.063572    81.378838    1798.1083   0.11531927   0.11924092   0.14995434   0.38451453  0.028134697  0.028602906  0.049508182   0.10624579 
  242000   -1794973.6    13582.984   -1415.6769    77.130717    89.063572    81.378838    1800.4684     0.116024   0.11840903   0.15129322   0.38572625  0.028212848  0.027985231  0.049866903   0.10606498 
  243000   -1794873.4    13669.737   -978.76726    77.130717    89.063572    81.378838    1811.9678   0.11557133   0.11905647   0.15462494   0.38925274  0.027670433   0.02788733  0.050574435    0.1061322 
  244000   -1794918.4    13525.328   -1618.0328    77.130717    89.063572    81.378838    1792.8259   0.11652585   0.12005087   0.15473876   0.39131548  0.028190184  0.028832979  0.051092514   0.10811568 
  245000   -1795013.1    13582.143   -1430.6729    77.130717    89.063572    81.378838    1800.3569   0.11740604   0.11930753   0.15586898   0.39258254  0.027805894  0.027441998  0.050770181   0.10601807 
  246000   -1794887.8    13600.074   -1222.8312    77.130717    89.063572    81.378838    1802.7337   0.11858366    0.1196075   0.15367956   0.39187072   0.02813656  0.028212627  0.050361769   0.10671096 
  247000   -1794925.9    13676.652   -795.80659    77.130717    89.063572    81.378838    1812.8844   0.11782673   0.12089336   0.15563783   0.39435792  0.027884626  0.028026281  0.051022816   0.10693372 
  248000   -1794900.9    13562.169   -1074.8732    77.130717    89.063572    81.378838    1797.7093   0.11818253   0.12092725   0.15606931    0.3951791  0.028150085  0.028799375  0.051235778   0.10818524 
  249000   -1794834.5    13585.437    -766.9657    77.130717    89.063572    81.378838    1800.7936   0.11826437   0.12094607   0.15469651   0.39390695  0.027702056  0.027764795  0.051476886   0.10694374 
  250000     -1794920    13591.872   -586.43573    77.130717    89.063572    81.378838    1801.6466   0.11892422   0.12223091    0.1565348   0.39768993  0.027722641  0.028522666   0.05131827   0.10756358 
  251000   -1794948.9    13598.408   -1227.9601    77.130717    89.063572    81.378838    1802.5129   0.12006881   0.12050425   0.15537144    0.3959445  0.028165226  0.028733099  0.050753786   0.10765211 
  252000   -1794911.1    13591.433   -1240.1031    77.130717    89.063572    81.378838    1801.5883   0.11939679   0.12025189   0.15607408   0.39572276  0.028660231  0.028155562  0.051568025   0.10838382 
  253000   -1794949.4    13587.511   -1896.9715    77.130717    89.063572    81.378838    1801.0684   0.11946189   0.12157784   0.15834248    0.3993822  0.027591873  0.028260556  0.052485778   0.10833821 
  254000   -1794896.8    13586.772    -1421.454    77.130717    89.063572    81.378838    1800.9705   0.12028707   0.12235265   0.15855785   0.40119757  0.027762554    0.0285885  0.051129738   0.10748079 
  255000   -1794851.5    13527.126   -988.74229    77.130717    89.063572    81.378838    1793.0643    0.1210347   0.12139126   0.15709294    0.3995189   0.02776948  0.028033794   0.05129279   0.10709606 
  256000   -1794872.6    13540.835   -1343.7267    77.130717    89.063572    81.378838    1794.8814   0.11983568   0.12293652   0.15770062   0.40047283  0.027194773  0.028691345  0.051880891   0.10776701 
  257000     -1794906    13576.969   -1323.8887    77.130717    89.063572    81.378838    1799.6711   0.12020511   0.12083238   0.15760767   0.39864516  0.026752879  0.028081321  0.050663185   0.10549739 
  258000   -1794826.5     13573.95   -852.95708    77.130717    89.063572    81.378838    1799.2709   0.12014141   0.12207003    0.1596708   0.40188223  0.028048356  0.028309572  0.053449051   0.10980698 
  259000   -1794837.2    13559.721   -945.60042    77.130717    89.063572    81.378838    1797.3848   0.12203044   0.12246072   0.15863572   0.40312688  0.028473039  0.028270693  0.052241091   0.10898482 
  260000     -1794892    13583.538    -1458.929    77.130717    89.063572    81.378838    1800.5418   0.12176637   0.12199739   0.15771811   0.40148188  0.028336377  0.028130686  0.053095448   0.10956251 
  261000   -1794956.2    13644.338   -1548.6485    77.130717    89.063572    81.378838     1808.601   0.12126638   0.12252469   0.15849613    0.4022872  0.027739899  0.028745947  0.053163317   0.10964916 
  262000   -1794875.5    13616.989   -981.36323    77.130717    89.063572    81.378838    1804.9758   0.12163643   0.12221703   0.15922482   0.40307827  0.027404026  0.027345251  0.052132369   0.10688165 
  263000   -1794925.3    13528.893   -1371.9391    77.130717    89.063572    81.378838    1793.2984   0.12198466   0.12370076   0.16120117   0.40688658  0.027404122  0.027622106  0.054310397   0.10933662 
  264000   -1794911.9    13507.353   -1762.3353    77.130717    89.063572    81.378838    1790.4433   0.12241095   0.12406248   0.16049027    0.4069637  0.027778961  0.028666746  0.052088738   0.10853445 
  265000   -1794914.1    13535.023   -1500.9333    77.130717    89.063572    81.378838    1794.1109   0.12177159   0.12351445   0.16201859   0.40730464  0.028125264  0.028423345  0.053114521   0.10966313 
  266000   -1794860.4    13520.083   -1149.7791    77.130717    89.063572    81.378838    1792.1306   0.12438823   0.12507879   0.16150063   0.41096765   0.02797948  0.028444716  0.051027998   0.10745219 
  267000   -1794950.7    13611.612   -1405.0024    77.130717    89.063572    81.378838    1804.2631    0.1244529   0.12463468   0.16323048   0.41231806  0.028077083  0.028490001  0.053213743   0.10978083 
  268000   -1794914.9    13652.259   -1592.7019    77.130717    89.063572    81.378838     1809.651   0.12353538   0.12288158    0.1607229   0.40713985  0.028341342  0.027836632   0.05022966   0.10640763 
  269000   -1794932.7    13578.716   -2118.1838    77.130717    89.063572    81.378838    1799.9027   0.12426922   0.12531006   0.16308958   0.41266885  0.027684537  0.028969481  0.053713752   0.11036777 
  270000   -1794867.9    13549.962   -917.53898    77.130717    89.063572    81.378838    1796.0913   0.12318107   0.12426697   0.16275141   0.41019945  0.027385375  0.028148244  0.052464867   0.10799849 
  271000   -1794981.2    13648.756   -2103.0453    77.130717    89.063572    81.378838    1809.1867     0.123878   0.12546989   0.16208441   0.41143231  0.027457918  0.028303981  0.053214049   0.10897595 
  272000   -1794913.7    13481.932   -1762.0578    77.130717    89.063572    81.378838    1787.0736   0.12458205   0.12392659    0.1621391   0.41064775  0.028521944   0.02794916  0.052663124   0.10913423 
  273000   -1794850.1    13592.851   -524.01541    77.130717    89.063572    81.378838    1801.7763   0.12497101   0.12468751   0.16431823   0.41397675  0.028255226  0.028374069  0.053611865   0.11024116 
  274000   -1794876.2    13602.591   -1271.9347    77.130717    89.063572    81.378838    1803.0674    0.1239352   0.12578121   0.16533923   0.41505564  0.026875836  0.029385553  0.054826986   0.11108838 
  275000   -1794910.5    13582.795   -1555.3103    77.130717    89.063572    81.378838    1800.4433   0.12437019   0.12662065   0.16424323   0.41523407  0.027503273  0.028471549   0.05477416   0.11074898 
  276000   -1794886.5    13544.773   -955.12936    77.130717    89.063572    81.378838    1795.4035   0.12550168   0.12575914   0.16639543   0.41765624  0.028281322  0.028426047  0.055451963   0.11215933 
  277000   -1794863.3    13618.025   -1089.3157    77.130717    89.063572    81.378838    1805.1132   0.12451727   0.12524893   0.16482342   0.41458962  0.028049281  0.028397661  0.053233466   0.10968041 
  278000   -1794931.3    13599.028    -1040.631    77.130717    89.063572    81.378838    1802.5951   0.12577127   0.12628242   0.16499841    0.4170521  0.028155269  0.028035481   0.05247886   0.10866961 
  279000   -1794941.2    13528.954    -1078.303    77.130717    89.063572    81.378838    1793.3065   0.12497675   0.12754581   0.16628084    0.4188034   0.02768971  0.028620057  0.054003715   0.11031348 
  280000   -1794906.4     13618.61    -1118.977    77.130717    89.063572    81.378838    1805.1908   0.12535324   0.12590704   0.16666518   0.41792546  0.027756007  0.028080255  0.053735365   0.10957163 
  281000   -1794971.7    13519.744   -1882.6157    77.130717    89.063572    81.378838    1792.0858   0.12509826   0.12662614   0.16862239   0.42034679  0.027795333   0.02832416  0.053059868   0.10917936 
  282000   -1794941.2    13649.119   -979.06823    77.130717    89.063572    81.378838    1809.2348    0.1253403   0.12592285   0.16731439   0.41857753  0.027976416  0.027791698  0.052823185    0.1085913 
  283000   -1794877.6    13610.942   -1103.4104    77.130717    89.063572    81.378838    1804.1744   0.12637941   0.12694624   0.16758308   0.42090873  0.027996292   0.02778614  0.053395124   0.10917756 
  284000   -1794915.3    13672.449   -1075.7184    77.130717    89.063572    81.378838    1812.3272   0.12628694   0.12757153   0.16694964   0.42080812  0.027708557   0.02757297  0.052625569    0.1079071 
  285000   -1794923.3    13559.425   -1446.7545    77.130717    89.063572    81.378838    1797.3456   0.12726144   0.12915826   0.16698438   0.42340408  0.027645836  0.028651585   0.05258687   0.10888429 
  286000   -1794881.8    13543.751   -1177.3397    77.130717    89.063572    81.378838    1795.2679   0.12645945   0.12887739   0.16944433   0.42478118  0.027365645  0.027680649    0.0531658   0.10821209 
  287000   -1794816.1    13612.215   -929.31019    77.130717    89.063572    81.378838    1804.3431   0.12712949   0.12949535   0.17101661   0.42764145  0.028253889  0.028465481  0.054531268   0.11125064 
  288000   -1794911.1    13546.987   -920.13525    77.130717    89.063572    81.378838    1795.6968   0.12623239   0.12859999   0.16904189   0.42387427   0.02797136  0.028130358  0.053926355   0.11002807 
  289000   -1794883.5    13520.512   -1027.2542    77.130717    89.063572    81.378838    1792.1876    0.1260264   0.13024892   0.16843753   0.42471285  0.026885237  0.028752877  0.052302024   0.10794014 
  290000   -1794905.3    13595.031   -1830.8605    77.130717    89.063572    81.378838    1802.0652   0.12710564   0.12953076   0.17025996   0.42689636  0.028697305  0.028023078  0.054838979   0.11155936 
  291000   -1794874.7    13721.927      -934.33    77.130717    89.063572    81.378838    1818.8858   0.12720505   0.12974509   0.16878395    0.4257341  0.028277656  0.028712198  0.053396794   0.11038665 
  292000   -1794908.6    13544.488   -1731.3058    77.130717    89.063572    81.378838    1795.3656   0.12740565   0.12971472   0.16946357   0.42658394  0.027212701  0.027589529  0.054846272    0.1096485 
  293000   -1794942.6    13601.055   -810.43886    77.130717    89.063572    81.378838    1802.8638   0.12831775   0.12980298    0.1692857   0.42740643  0.027690974  0.028293986  0.053959969   0.10994493 
  294000   -1794960.2    13481.292   -1613.1934    77.130717    89.063572    81.378838    1786.9888   0.12777819   0.13097328    0.1690738   0.42782526  0.027657704  0.028967986   0.05401207   0.11063776 
  295000   -1794920.1    13645.602   -1331.3021    77.130717    89.063572    81.378838    1808.7687   0.12918621   0.13096047   0.16840825   0.42855493  0.028371557  0.029085683  0.053310667   0.11076791 
  296000   -1794887.1    13651.686   -1307.4471    77.130717    89.063572    81.378838    1809.5751    0.1288192   0.13220365   0.16977413   0.43079697   0.02759747   0.02861144  0.054222737   0.11043165 
  297000   -1794972.9    13582.795   -1905.5876    77.130717    89.063572    81.378838    1800.4434    0.1278821   0.13182221   0.16877168   0.42847599  0.026769802  0.028232554  0.052610841    0.1076132 
  298000   -1794935.2    13604.088   -1446.3233    77.130717    89.063572    81.378838    1803.2658    0.1296102    0.1320998   0.17123747   0.43294748  0.028118594  0.028301602  0.053947786   0.11036798 
  299000   -1794847.7    13540.203   -1409.6996    77.130717    89.063572    81.378838    1794.7977   0.12798996    0.1315683   0.17136427   0.43092253  0.027114061  0.027778079  0.052833438   0.10772558 
  300000   -1794893.3    13478.738   -1509.5921    77.130717    89.063572    81.378838    1786.6502   0.12868232   0.13300758   0.17147513   0.43316503  0.027403513  0.027338771   0.05337133   0.10811361 
  301000   -1794812.9    13615.027   -842.97435    77.130717    89.063572    81.378838    1804.7159   0.12769567   0.13393297   0.17268251   0.43431115  0.027057615  0.028796349  0.053509815   0.10936378 
  302000   -1794914.1    13570.648   -1544.0169    77.130717    89.063572    81.378838    1798.8332    0.1289004   0.13117721   0.17214689   0.43222451  0.027869587  0.027607561  0.054052769   0.10952992 
  303000   -1794909.4    13561.174   -998.43753    77.130717    89.063572    81.378838    1797.5774   0.12901634   0.13312721    0.1724707   0.43461424  0.027886293  0.028512672  0.052212317   0.10861128 
  304000   -1794864.5    13616.033   -1002.7555    77.130717    89.063572    81.378838    1804.8492    0.1292481   0.13411085   0.17403485    0.4373938  0.027113497  0.028480312  0.053812997   0.10940681 
  305000   -1794927.5    13556.107   -1457.3983    77.130717    89.063572    81.378838    1796.9058    0.1299725    0.1337881   0.17472599   0.43848659  0.027437144  0.027652184  0.055204604   0.11029393 
  306000   -1794955.1    13539.492   -1173.3317    77.130717    89.063572    81.378838    1794.7033   0.12979918   0.13424588   0.17215262   0.43619768  0.027745566  0.028493154  0.052757817   0.10899654 
  307000   -1794894.9    13549.195   -1083.6333    77.130717    89.063572    81.378838    1795.9895   0.13060273   0.13375619   0.17406183   0.43842075  0.028347347  0.028208327  0.055673156   0.11222883 
  308000   -1794890.8    13570.271   -1376.1276    77.130717    89.063572    81.378838    1798.7832   0.13049383   0.13434891   0.17453162   0.43937436  0.028051846  0.027445766  0.054160208   0.10965782 
  309000   -1795000.3    13588.767   -2112.3438    77.130717    89.063572    81.378838    1801.2349   0.13048464   0.13374593   0.17358212    0.4378127  0.028479775   0.02738747  0.055101432   0.11096868 
  310000   -1794941.6    13679.706   -1175.0762    77.130717    89.063572    81.378838    1813.2891   0.13059314   0.13545361    0.1741729   0.44021965  0.028076864  0.028546885  0.054957824   0.11158157 
  311000   -1794838.4    13598.112     -694.745    77.130717    89.063572    81.378838    1802.4737   0.13095979   0.13519509   0.17357635   0.43973123  0.027837194  0.028255782  0.053443572   0.10953655 
  312000   -1794930.1    13511.748   -1531.8938    77.130717    89.063572    81.378838    1791.0258   0.13019932   0.13552801    0.1737269   0.43945424  0.028389286  0.027551058  0.051632422   0.10757277 
  313000   -1794952.9    13666.796   -1501.1069    77.130717    89.063572    81.378838    1811.5779   0.13128924   0.13635514   0.17708422    0.4447286  0.027989814  0.027694401  0.052038925   0.10772314 
  314000   -1794863.7    13471.621   -1585.8126    77.130717    89.063572    81.378838    1785.7069   0.13018834    0.1354697   0.17441434   0.44007238  0.027907815  0.028223758  0.052247477   0.10837905 
  315000   -1794904.3    13588.758   -1006.9475    77.130717    89.063572    81.378838    1801.2337   0.13218059    0.1365728   0.17516198   0.44391538    0.0285468  0.028723048  0.053982945   0.11125279 
  316000   -1794845.3    13528.079   -944.03993    77.130717    89.063572    81.378838    1793.1905   0.13074431   0.13583068   0.17327357   0.43984855    0.0279409  0.028447609  0.052370053   0.10875856 
  317000   -1794912.9    13616.998   -852.42916    77.130717    89.063572    81.378838    1804.9771   0.13130288    0.1373242   0.17428545   0.44291252  0.027573989  0.029502659  0.051682074   0.10875872 
  318000   -1794914.5    13631.826   -1173.8132    77.130717    89.063572    81.378838    1806.9426   0.13184853    0.1361741   0.17356772   0.44159035  0.027773911  0.027675677  0.053398478   0.10884807 
  319000   -1794969.4    13524.555    -1717.605    77.130717    89.063572    81.378838    1792.7235   0.13206692   0.13716922   0.17506231   0.44429845  0.027328792  0.027868615  0.052736956   0.10793436 
  320000   -1794883.7    13618.527   -1518.6644    77.130717    89.063572    81.378838    1805.1798   0.13173618   0.13724415   0.17483483   0.44381516  0.026734951  0.028396356  0.055149356   0.11028066 
  321000   -1794936.4    13665.419   -428.11827    77.130717    89.063572    81.378838    1811.3954   0.13243246   0.13624667   0.17444866    0.4431278  0.028290585  0.028125087  0.054544472   0.11096014 
  322000   -1794880.1    13615.731   -1279.3446    77.130717    89.063572    81.378838    1804.8091   0.13258347   0.13728641   0.17463516   0.44450503  0.028041652  0.028563677  0.054193477   0.11079881 
  323000   -1794911.8    13633.556   -1025.6028    77.130717    89.063572    81.378838    1807.1719   0.13382798   0.13662038   0.17523264   0.44568101  0.026901714  0.028385488  0.054079606   0.10936681 
  324000   -1794809.9    13539.218   -1087.0487    77.130717    89.063572    81.378838    1794.6671    0.1338477    0.1384128   0.17577774   0.44803824  0.027166657  0.028850212  0.054883424   0.11090029 
  325000   -1794978.2    13457.845    -1659.896    77.130717    89.063572    81.378838    1783.8808   0.13394353   0.13604027   0.17539208   0.44537587  0.027129617  0.027262697  0.053665619   0.10805793 
  326000   -1794915.8    13638.442   -1207.5882    77.130717    89.063572    81.378838    1807.8195   0.13505566   0.13884624   0.17640066   0.45030257  0.027796766  0.027782953  0.054348337   0.10992806 
  327000   -1794928.5    13590.452   -1265.1363    77.130717    89.063572    81.378838    1801.4583   0.13479549   0.13914072   0.17757759    0.4515138  0.027114259  0.028982698  0.055271159   0.11136812 
  328000   -1794919.1    13705.276   -1239.8224    77.130717    89.063572    81.378838    1816.6786   0.13474461   0.13778581   0.17813301   0.45066342   0.02735736  0.027647021  0.055395208   0.11039959 
  329000     -1794941    13569.055   -1915.4025    77.130717    89.063572    81.378838    1798.6221   0.13557539   0.13802225   0.17783904   0.45143668  0.027619792  0.028325351  0.054771825   0.11071697 
  330000   -1794883.9    13623.636   -1160.8681    77.130717    89.063572    81.378838     1805.857   0.13576294   0.13920413   0.17809066   0.45305773  0.027729859  0.028317098   0.05452034    0.1105673 
  331000   -1794842.6     13650.17   -559.71696    77.130717    89.063572    81.378838    1809.3741   0.13579959   0.13822098   0.17790901   0.45192959  0.028783183  0.027994834  0.054715421   0.11149344 
  332000   -1794880.4     13614.95    -867.7382    77.130717    89.063572    81.378838    1804.7056   0.13608713    0.1397114   0.17905173   0.45485027  0.027886645  0.027550523  0.055112549   0.11054972 
  333000   -1794871.6    13611.514   -955.11677    77.130717    89.063572    81.378838    1804.2501   0.13528307   0.13970518    0.1806235   0.45561175  0.027742818  0.028846344  0.057118293   0.11370745 
  334000     -1794932    13631.879   -830.37708    77.130717    89.063572    81.378838    1806.9495   0.13536062   0.14070668   0.18139385   0.45746114  0.028157306  0.028468287  0.056854332   0.11347992 
  335000   -1794813.7    13564.409   -1131.6454    77.130717    89.063572    81.378838    1798.0062    0.1370621   0.14007722    0.1825547   0.45969402  0.026977241  0.028302088  0.057140344   0.11241967 
  336000   -1794959.5    13575.683   -1469.6648    77.130717    89.063572    81.378838    1799.5006   0.13656146   0.14066071   0.18333719   0.46055937  0.027277136  0.027689746   0.05525316   0.11022004 
  337000   -1794923.5    13645.892   -921.34665    77.130717    89.063572    81.378838     1808.807   0.13625228   0.14239263   0.18240758    0.4610525  0.027708604   0.02827047  0.053588382   0.10956746 
  338000   -1794857.8    13528.252   -990.42983    77.130717    89.063572    81.378838    1793.2135   0.13612695   0.14312665   0.18360416   0.46285776  0.027866907  0.028182527  0.055856328   0.11190576 
  339000   -1794988.5    13485.271   -1729.0164    77.130717    89.063572    81.378838    1787.5162    0.1383303   0.14194253     0.184422   0.46469483  0.027802785  0.027676458   0.05656565   0.11204489 
  340000   -1794949.6    13620.648   -1590.2442    77.130717    89.063572    81.378838    1805.4608   0.13810725   0.14255643   0.18453082   0.46519449  0.028113242  0.027167208  0.056570894   0.11185134 
  341000   -1794829.7    13543.617   -1374.1545    77.130717    89.063572    81.378838    1795.2502   0.13836022   0.14192414   0.18411291   0.46439726  0.027827657  0.027723312  0.055029171   0.11058014 
  342000   -1794846.8    13499.556   -1010.4873    77.130717    89.063572    81.378838    1789.4098   0.13732735   0.14405062   0.18728495   0.46866291  0.027307261  0.028322369  0.057426573    0.1130562 
  343000   -1794836.3    13595.641    -305.0901    77.130717    89.063572    81.378838    1802.1461   0.13875925   0.14372642   0.18797475   0.47046043   0.02730791  0.027877726  0.057675724   0.11286136 
  344000   -1794885.6    13578.246   -1207.0931    77.130717    89.063572    81.378838    1799.8403   0.14092358    0.1438679   0.18660424   0.47139572  0.028896859  0.027537102  0.057805833   0.11423979 
  345000   -1794951.5    13662.054    -1121.738    77.130717    89.063572    81.378838    1810.9493   0.13819013   0.14584926   0.18645798   0.47049736  0.027329345   0.02829269  0.057206479   0.11282851 
  346000   -1794890.7    13537.258   -1509.4021    77.130717    89.063572    81.378838    1794.4073   0.13902353   0.14517439   0.18444079   0.46863871  0.027650724  0.028048324  0.055236066   0.11093511 
  347000   -1794901.3    13575.485   -1128.9097    77.130717    89.063572    81.378838    1799.4744   0.13992371   0.14503455   0.18684481   0.47180308  0.028254409  0.027911137  0.055773711   0.11193926 
  348000   -1794861.6    13562.705   -791.33262    77.130717    89.063572    81.378838    1797.7804   0.14028069   0.14387691   0.18539534   0.46955294  0.027773091  0.027687309  0.056856946   0.11231735 
  349000   -1794882.9    13547.856   -1481.1816    77.130717    89.063572    81.378838    1795.8121   0.14095179    0.1445313   0.18754193   0.47302502  0.027981231  0.027400653  0.056722091   0.11210398 
  350000     -1794929    13601.817    -1594.831    77.130717    89.063572    81.378838    1802.9648   0.14113887    0.1452336   0.18652375   0.47289622  0.027352414  0.027254144  0.054590039    0.1091966 
  351000   -1794870.9    13534.274   -1128.0509    77.130717    89.063572    81.378838    1794.0118   0.14082003   0.14402598   0.18696773   0.47181374  0.027210757  0.028026548   0.05642346   0.11166076 
  352000   -1794888.2    13564.743   -1053.8498    77.130717    89.063572    81.378838    1798.0505    0.1393591   0.14461973   0.18739286   0.47137169  0.027823099   0.02821169  0.056231538   0.11226633 
  353000   -1794891.9    13538.252    -1371.259    77.130717    89.063572    81.378838     1794.539   0.14163186    0.1452611   0.18759184   0.47448481  0.027980524  0.027413601  0.056250903   0.11164503 
  354000     -1794945     13491.73   -1546.7009    77.130717    89.063572    81.378838    1788.3724   0.14068353   0.14626712   0.19064442   0.47759507  0.027855311  0.028142351  0.056743186   0.11274085 
  355000   -1794876.1    13561.775   -954.92692    77.130717    89.063572    81.378838    1797.6571    0.1419025    0.1464435   0.18839965   0.47674565  0.028332655   0.02780226  0.054588678   0.11072359 
  356000   -1794899.2    13612.985   -1198.6941    77.130717    89.063572    81.378838    1804.4451   0.14149606   0.14524861   0.18962808   0.47637275  0.027782196  0.027870245  0.056258279   0.11191072 
  357000   -1794915.5    13579.401   -730.44442    77.130717    89.063572    81.378838    1799.9935   0.14119269   0.14599801    0.1878261    0.4750168  0.027598857  0.028586043  0.055095993   0.11128089 
  358000   -1794866.7    13601.425   -578.81577    77.130717    89.063572    81.378838    1802.9128   0.14157135   0.14601753    0.1900652   0.47765408  0.027778262  0.028165292  0.057057867   0.11300142 
  359000     -1794906    13558.922   -1579.2348    77.130717    89.063572    81.378838    1797.2789   0.14308524   0.14669302   0.19027044    0.4800487  0.027854261  0.027793926  0.055186456   0.11083464 
  360000   -1794883.2    13638.285   -460.09467    77.130717    89.063572    81.378838    1807.7987   0.14180899   0.14542261   0.18893849    0.4761701  0.027844235  0.027315065   0.05551961   0.11067891 
  361000     -1794936    13607.249   -1822.7211    77.130717    89.063572    81.378838    1803.6847   0.14285327   0.14604867   0.18925981   0.47816174  0.027959052  0.027700355  0.055605085   0.11126449 
  362000   -1794876.4    13680.573   -1071.3962    77.130717    89.063572    81.378838    1813.4042   0.14356331   0.14754278   0.18986615   0.48097225  0.028012864  0.028053197  0.052692166   0.10875823 
  363000   -1794844.9     13516.28   -1065.7265    77.130717    89.063572    81.378838    1791.6266   0.14357814   0.14623942   0.18955837   0.47937593  0.027871414  0.027408433  0.056704922   0.11198477 
  364000     -1794942    13552.778    -1360.649    77.130717    89.063572    81.378838    1796.4645    0.1424113   0.14657255   0.19010551   0.47908936  0.027287831  0.028376646  0.056312303   0.11197678 
  365000   -1794976.6     13565.69   -1507.2567    77.130717    89.063572    81.378838     1798.176   0.14445074   0.14759642   0.19111101   0.48315817  0.028086687  0.027643065  0.054743744    0.1104735 
  366000   -1794869.4    13636.088    -882.5791    77.130717    89.063572    81.378838    1807.5075    0.1434368   0.14820987   0.19163136   0.48327803  0.028231344  0.027940159  0.056362736   0.11253424 
  367000     -1794867    13625.478   -776.93283    77.130717    89.063572    81.378838    1806.1011   0.14387267   0.14856559   0.19292264    0.4853609  0.027223471  0.028284012   0.05509471   0.11060219 
  368000   -1794870.5    13521.585    -1042.575    77.130717    89.063572    81.378838    1792.3298   0.14411029   0.14732336   0.19203327   0.48346692   0.02769772  0.027793299  0.054640403   0.11013142 
  369000   -1794882.1    13590.483   -1304.0026    77.130717    89.063572    81.378838    1801.4625   0.14366335   0.14811556   0.19278362   0.48456254  0.027121272  0.028596783   0.05588709   0.11160515 
  370000   -1794899.6    13530.125   -1568.0638    77.130717    89.063572    81.378838    1793.4618   0.14466896    0.1476804   0.19117863   0.48352799  0.026828185  0.027192859  0.055574474   0.10959552 
  371000     -1794883    13575.875   -1550.8709    77.130717    89.063572    81.378838     1799.526   0.14581579   0.14925081   0.19376737   0.48883398  0.028651357  0.028919353  0.056865096   0.11443581 
  372000   -1794882.8    13565.794   -1169.3288    77.130717    89.063572    81.378838    1798.1898   0.14556935   0.14887342   0.19233398   0.48677674  0.028061222  0.028634949  0.055301729    0.1119979 
  373000   -1794896.9    13531.242   -1164.3325    77.130717    89.063572    81.378838    1793.6098   0.14484701   0.14958863   0.19234404   0.48677968  0.027350926  0.027898607  0.055631481   0.11088101 
  374000   -1794861.4    13548.927   -1381.7958    77.130717    89.063572    81.378838     1795.954   0.14677988   0.14922908   0.19360664    0.4896156  0.028351242  0.028095621  0.057419902   0.11386676 
  375000   -1794919.6    13646.604   -1125.6271    77.130717    89.063572    81.378838    1808.9014   0.14741146   0.14982646   0.19471661   0.49195453  0.027566256  0.028244407  0.055996886   0.11180755 
  376000   -1794852.5    13579.102   -823.05103    77.130717    89.063572    81.378838    1799.9539   0.14810608   0.14972843   0.19601061   0.49384512  0.027779836  0.028305198   0.05713738   0.11322241 
  377000   -1794914.8    13593.024   -1287.7596    77.130717    89.063572    81.378838    1801.7992   0.14624895   0.14978993   0.19596991    0.4920088  0.026896959  0.027753317   0.05598722    0.1106375 
  378000   -1794902.4    13639.038   -1271.5502    77.130717    89.063572    81.378838    1807.8985   0.14791158   0.15000826   0.19571116     0.493631  0.027188063    0.0275063   0.05605646   0.11075082 
[...]
  907000   -1794868.4    13608.547   -776.97544    77.130717    89.063572    81.378838    1803.8569   0.22633681   0.22773279   0.32159377   0.77566336  0.028598029  0.029893383  0.077954126   0.13644554 
  908000   -1794837.6    13543.841   -649.93031    77.130717    89.063572    81.378838    1795.2798   0.22506757   0.22794255   0.32134899   0.77435912  0.028509255  0.029603983  0.076093829   0.13420707 
  909000   -1794947.1    13547.598   -1062.9024    77.130717    89.063572    81.378838    1795.7779    0.2269936   0.22723075     0.320293   0.77451735  0.028427717  0.029362772   0.07824387   0.13603436 
  910000   -1795001.1     13582.44   -1323.9322    77.130717    89.063572    81.378838    1800.3962    0.2256725   0.22819797   0.31892657   0.77279704  0.028592462  0.029163741   0.07559896   0.13335516 
  911000     -1794899    13572.213   -1007.6325    77.130717    89.063572    81.378838    1799.0407   0.22670442   0.22782478   0.32269767   0.77722686  0.028553327  0.029842811  0.076609596   0.13500573 
  912000   -1794939.7    13576.879   -1325.7208    77.130717    89.063572    81.378838    1799.6591   0.22767441   0.22834511   0.32234355   0.77836307  0.028871588  0.029887359  0.077001905   0.13576085 
  913000   -1794906.6     13560.15   -592.28566    77.130717    89.063572    81.378838    1797.4417   0.22637407   0.22867361   0.32112623   0.77617391  0.028536403  0.029622463  0.076613046   0.13477191 
  914000   -1795008.4    13638.948   -1266.2076    77.130717    89.063572    81.378838    1807.8866   0.22686972   0.22913876    0.3246481   0.78065658  0.029048644  0.029471719  0.077314346   0.13583471 
  915000   -1794919.6    13542.473    -1171.536    77.130717    89.063572    81.378838    1795.0985    0.2263685   0.23070899   0.32636186   0.78343935  0.028542318  0.030426949  0.077698111   0.13666738 
  916000   -1794889.5    13517.449   -773.31488    77.130717    89.063572    81.378838    1791.7815   0.22832938   0.22968896   0.32305899   0.78107733  0.029751203   0.02945806  0.075703788   0.13491305 
  917000   -1794904.4     13502.76   -1014.5832    77.130717    89.063572    81.378838    1789.8345   0.22818578    0.2291272   0.32291195   0.78022493  0.029646392  0.030424045  0.077761986   0.13783242 
  918000   -1795064.2    13546.261   -1863.0652    77.130717    89.063572    81.378838    1795.6006   0.22875908   0.22875484   0.32229021   0.77980413  0.030338424  0.030255129  0.075703138   0.13629669 
  919000     -1794927    13507.513   -1316.9896    77.130717    89.063572    81.378838    1790.4644   0.22833053   0.23006948   0.32276058   0.78116059  0.029543651  0.030045535  0.078172858   0.13776204 
  920000   -1794962.3    13620.994   -1303.7359    77.130717    89.063572    81.378838    1805.5067   0.22716937    0.2293858   0.32426342   0.78081859  0.028883973  0.029704303  0.076920634   0.13550891 
  921000   -1794859.6    13608.201   -695.88685    77.130717    89.063572    81.378838     1803.811   0.22772966   0.23061512   0.32360681    0.7819516  0.028796918  0.030457037  0.077017035   0.13627099 
  922000     -1794968    13543.971   -1020.1979    77.130717    89.063572    81.378838     1795.297   0.22791276   0.23077387   0.32407715   0.78276378  0.029247911  0.030258871  0.076422293   0.13592907 
  923000   -1794984.2    13596.503   -1274.8057    77.130717    89.063572    81.378838    1802.2604   0.22914394   0.22817057   0.32512545   0.78243997  0.029064026  0.029102677  0.075701039   0.13386774 
  924000   -1794856.5    13601.036   -615.10446    77.130717    89.063572    81.378838    1802.8612   0.22756022   0.23011966   0.32567199   0.78335186  0.028728135  0.029707837  0.077792364   0.13622834 
  925000   -1794900.3    13577.367   -1232.5769    77.130717    89.063572    81.378838    1799.7238   0.22845322   0.22861468   0.32491455   0.78198245  0.029508713  0.029414497  0.078967785     0.137891 
  926000   -1794863.9    13596.885   -478.92564    77.130717    89.063572    81.378838     1802.311   0.22902333   0.23035918     0.321771    0.7811535  0.028443867  0.030337276  0.076621094   0.13540224 
  927000   -1794962.7    13594.178   -1207.0108    77.130717    89.063572    81.378838    1801.9522   0.22828538   0.22885289   0.32491277   0.78205104  0.028520538  0.029578033  0.078854458   0.13695303 
  928000   -1794982.7    13644.807   -1300.4617    77.130717    89.063572    81.378838    1808.6632   0.22680397   0.22943682    0.3248649   0.78110569  0.028560901  0.029105612  0.076613843   0.13428036 
  929000   -1794904.8    13559.696   -1057.3363    77.130717    89.063572    81.378838    1797.3814   0.22930247   0.22986581   0.32236031    0.7815286  0.029488006  0.030217268  0.078370054   0.13807533 
  930000   -1794927.5    13635.754   -1362.7215    77.130717    89.063572    81.378838    1807.4632   0.22929817   0.22814905   0.32426834   0.78171556  0.028952062  0.029408241   0.07970759   0.13806789 
  931000   -1794906.3    13612.133   -1147.6301    77.130717    89.063572    81.378838    1804.3322   0.22828447   0.23119405     0.326267   0.78574552  0.028743169  0.030177565  0.077381406   0.13630214 
  932000   -1794882.2    13486.541   -1220.4323    77.130717    89.063572    81.378838    1787.6846   0.22831059   0.22996107   0.32479733   0.78306899  0.029638349  0.029721228  0.076798845   0.13615842 
  933000   -1794865.8    13701.226   -1042.8404    77.130717    89.063572    81.378838    1816.1417   0.22895309   0.23056881   0.32407997   0.78360188    0.0291156   0.03042165   0.07850146   0.13803871 
  934000   -1794973.6    13542.338   -1501.0556    77.130717    89.063572    81.378838    1795.0806   0.22837756   0.23137132   0.32542392    0.7851728  0.029010871  0.029882195  0.076097574   0.13499064 
  935000   -1794875.9    13555.689   -615.42047    77.130717    89.063572    81.378838    1796.8503   0.22939522   0.23061409   0.32445856   0.78446786   0.02931742  0.029934902   0.07440145   0.13365377 
  936000   -1794874.8    13498.505   -392.75813    77.130717    89.063572    81.378838    1789.2704   0.22922368   0.23047318   0.32685118   0.78654803  0.028794632  0.030241107  0.076397597   0.13543334 
  937000   -1794899.9    13596.349   -1189.9846    77.130717    89.063572    81.378838      1802.24   0.22995876   0.23156018   0.32492989   0.78644883  0.028855318  0.030212122  0.074785275   0.13385271 
  938000   -1794924.1     13541.22   -1552.2502    77.130717    89.063572    81.378838    1794.9325   0.23057645   0.23115466   0.32646932   0.78820043  0.028749717  0.029945552  0.075653587   0.13434886 
  939000   -1794893.2    13569.289   -751.21278    77.130717    89.063572    81.378838    1798.6531   0.22879598   0.23021942   0.32674378   0.78575917  0.028768523  0.029635765  0.076860879   0.13526517 
  940000   -1794887.2    13607.604    13.245398    77.130717    89.063572    81.378838    1803.7318   0.22885733    0.2329587   0.32625709   0.78807312  0.028428417  0.030268198  0.076059706   0.13475632 
  941000   -1794965.5    13541.346   -1054.9985    77.130717    89.063572    81.378838    1794.9492    0.2302785   0.23180949   0.32709592   0.78918391  0.029934622  0.029755265  0.074753896   0.13444378 
  942000   -1794825.9    13583.155   -621.07166    77.130717    89.063572    81.378838    1800.4911   0.22771663   0.23270182   0.32616242   0.78658087  0.028741064  0.029280485   0.07663143   0.13465298 
  943000   -1794917.7    13620.211   -676.38164    77.130717    89.063572    81.378838     1805.403    0.2288019   0.23420735   0.32726232   0.79027157  0.028014394   0.03055093  0.076350156   0.13491548 
  944000   -1794970.9    13527.825   -1054.7342    77.130717    89.063572    81.378838    1793.1569    0.2291803   0.23354982   0.32923646   0.79196657  0.029102518  0.029505213  0.077888923   0.13649665 
  945000   -1794972.2    13584.903   -1304.5521    77.130717    89.063572    81.378838    1800.7228   0.22827309    0.2324317   0.32840459   0.78910938  0.028736109  0.029209081  0.075720404   0.13366559 
  946000   -1794873.2     13535.83   -454.05588    77.130717    89.063572    81.378838    1794.2179   0.22887701   0.23224041   0.32937268    0.7904901  0.028320579  0.029937907  0.077370056   0.13562854 
  947000     -1794928    13573.456   -1121.0867    77.130717    89.063572    81.378838    1799.2054   0.22891923   0.23228953   0.33038177   0.79159052  0.028509241  0.029972742  0.077934688   0.13641667 
  948000   -1794926.9     13681.96    -1005.679    77.130717    89.063572    81.378838    1813.5879   0.22924931   0.23365644   0.32989662   0.79280236  0.028151602  0.029119022  0.077022234   0.13429286 
  949000   -1794918.4    13525.595   -1459.2038    77.130717    89.063572    81.378838    1792.8613   0.22923637   0.23249019   0.33108366   0.79281023  0.028568317  0.029175193  0.076277626   0.13402114 
  950000   -1794994.8    13516.166   -1893.4466    77.130717    89.063572    81.378838    1791.6115   0.23109423   0.23389885   0.32758967   0.79258275  0.028905099  0.030156995  0.075777134   0.13483923 
  951000   -1794916.6    13509.429   -1375.1784    77.130717    89.063572    81.378838    1790.7185   0.22952134   0.23316565    0.3296141   0.79230109  0.028598104  0.029517564  0.076963571   0.13507924 
  952000   -1794859.7     13560.63   -1066.8167    77.130717    89.063572    81.378838    1797.5054   0.23001256   0.23401891   0.33093831   0.79496978  0.028347332   0.03025088  0.079083498   0.13768171 
  953000   -1795000.6    13599.578   -1516.2097    77.130717    89.063572    81.378838     1802.668   0.23028339   0.23382363   0.33138318   0.79549019  0.028600398  0.030647072  0.079115055   0.13836253 
  954000   -1794915.9     13566.76   -1050.1367    77.130717    89.063572    81.378838    1798.3178   0.23051797   0.23386607   0.33078078   0.79516482  0.028829814  0.029644579  0.079152799   0.13762719 
  955000   -1794972.6    13651.062   -1414.1517    77.130717    89.063572    81.378838    1809.4923    0.2321487   0.23466511   0.33117771   0.79799153  0.028896623  0.030324094  0.078293452   0.13751417 
  956000     -1794889    13592.071   -437.55942    77.130717    89.063572    81.378838    1801.6729   0.22985422   0.23392925   0.32959086   0.79337433  0.028554726  0.030095185   0.07934741   0.13799732 
  957000   -1794957.4    13607.363   -798.96578    77.130717    89.063572    81.378838    1803.6999   0.22968655   0.23322275   0.33024626   0.79315556  0.028979318  0.030038232  0.076859103   0.13587665 
  958000   -1794890.6    13481.878   -309.09476    77.130717    89.063572    81.378838    1787.0665    0.2315798   0.23324342   0.33193875   0.79676197  0.028444681  0.029809125  0.080449796    0.1387036 
  959000     -1794966     13547.45   -1646.2905    77.130717    89.063572    81.378838    1795.7583   0.23111538   0.23319752   0.33073881   0.79505171  0.028642031  0.029570405  0.077312483   0.13552492 
  960000   -1794860.7    13576.449   -1095.9409    77.130717    89.063572    81.378838    1799.6022   0.23179682   0.23634419   0.33415547   0.80229648  0.029018662  0.030408052  0.077598194   0.13702491 
  961000   -1794958.2     13534.66    -1148.963    77.130717    89.063572    81.378838    1794.0629   0.23230978   0.23353809   0.33096677   0.79681464  0.028881115  0.029568666  0.076188691   0.13463847 
  962000   -1794943.8    13534.939   -888.15963    77.130717    89.063572    81.378838    1794.0999   0.23109002   0.23521692   0.33429918   0.80060611  0.029180418  0.029803663  0.077826032   0.13681011 
  963000   -1794880.5    13530.825   -527.02953    77.130717    89.063572    81.378838    1793.5545   0.23142876   0.23633629   0.33304052   0.80080557   0.02867557  0.030589488  0.075333952   0.13459901 
  964000   -1794880.3    13542.581    -567.4359    77.130717    89.063572    81.378838    1795.1128   0.23128993   0.23263009   0.33415043   0.79807045  0.028657413  0.028967565  0.077084412   0.13470939 
  965000   -1794938.4    13591.056   -665.88494    77.130717    89.063572    81.378838    1801.5384    0.2318412   0.23431592   0.33417681   0.80033393  0.028839565  0.029124514  0.076700811   0.13466489 
  966000   -1794884.7    13571.344   -758.18947    77.130717    89.063572    81.378838    1798.9254   0.23148474   0.23498667   0.33327021   0.79974163  0.028556128  0.030618609  0.076973391   0.13614813 
  967000   -1794967.6    13619.316   -1000.5991    77.130717    89.063572    81.378838    1805.2843   0.23209042   0.23455524   0.33538927   0.80203492  0.028498845  0.029808084  0.079624918   0.13793185 
  968000   -1794916.2    13586.668   -1356.6772    77.130717    89.063572    81.378838    1800.9567   0.23235035   0.23386311    0.3329618   0.79917526  0.028438428  0.029285576  0.078122277   0.13584628 
  969000   -1794909.9    13483.842   -1348.5732    77.130717    89.063572    81.378838    1787.3268   0.23276597   0.23461503   0.33260286   0.79998387  0.028786659  0.029737734  0.077278183   0.13580258 
  970000   -1794882.7    13641.081   -1090.0755    77.130717    89.063572    81.378838    1808.1693   0.23280374   0.23592045   0.33402228   0.80274647  0.029146763  0.029575864  0.077651499   0.13637413 
  971000   -1794896.8     13657.12   -787.46242    77.130717    89.063572    81.378838    1810.2954    0.2342981   0.23740549   0.33650089   0.80820449  0.029406695  0.029721505  0.076630322   0.13575852 
  972000   -1794979.2    13592.775   -1205.4639    77.130717    89.063572    81.378838    1801.7662   0.23537596   0.23578748   0.33330862   0.80447206  0.029807098  0.030036152  0.076710516   0.13655377 
  973000   -1794995.1    13555.213   -1346.3015    77.130717    89.063572    81.378838    1796.7872   0.23451162   0.23767635   0.33442931   0.80661729  0.028594171  0.030340627  0.078388256   0.13732305 
  974000   -1794883.8    13618.748   -1202.5619    77.130717    89.063572    81.378838     1805.209   0.23425296   0.23544749   0.33629978   0.80600023  0.028902313  0.029643379  0.078287957   0.13683365 
  975000   -1794932.9    13477.108   -1453.5019    77.130717    89.063572    81.378838    1786.4342   0.23356472   0.23529176   0.33501901   0.80387549  0.028582209  0.029399361  0.077572954   0.13555452 
  976000   -1794896.3     13567.99   -804.92239    77.130717    89.063572    81.378838    1798.4809   0.23327011   0.23589183   0.33636636    0.8055283  0.028505112  0.030063862   0.07867667   0.13724564 
  977000   -1794953.6    13634.003   -925.17219    77.130717    89.063572    81.378838    1807.2311   0.23343036   0.23469865   0.33561373   0.80374274  0.028703693  0.029594823  0.077918409   0.13621692 
  978000   -1794815.5    13628.781   -232.28346    77.130717    89.063572    81.378838    1806.5389   0.23403057   0.23676382   0.33717426   0.80796865  0.029245417  0.029892035  0.079275912   0.13841336 
  979000   -1794923.1    13592.737   -957.35381    77.130717    89.063572    81.378838    1801.7612   0.23369345   0.23790373   0.33730213    0.8088993  0.028830232  0.031105608  0.079395921   0.13933176 
  980000   -1794974.9    13660.115   -1184.6299    77.130717    89.063572    81.378838    1810.6924   0.23358804   0.23633647   0.33319282   0.80311733  0.028550096  0.029412124  0.078701149   0.13666337 
  981000   -1794903.6    13584.752   -625.59125    77.130717    89.063572    81.378838    1800.7027    0.2339921   0.23694425   0.33697077   0.80790712  0.028487963  0.029955004  0.079747021   0.13818999 
  982000   -1794920.7    13668.212   -785.58774    77.130717    89.063572    81.378838    1811.7656   0.23319927   0.23460562   0.33468087   0.80248576  0.028061749   0.02909752  0.076127637   0.13328691 
  983000     -1794866    13594.255   -1172.2275    77.130717    89.063572    81.378838    1801.9624   0.23419891   0.23587286   0.33499803   0.80506979  0.028291501  0.030296436  0.077353218   0.13594115 
  984000   -1794867.9    13488.659   -837.47738    77.130717    89.063572    81.378838    1787.9653   0.23451412   0.23573047   0.33814597   0.80839057  0.028652623  0.028902851  0.077648299   0.13520377 
  985000   -1794893.6    13572.039   -1011.8407    77.130717    89.063572    81.378838    1799.0176    0.2347332   0.23568765   0.33549391   0.80591476  0.028865095  0.030127929  0.079402318   0.13839534 
  986000   -1794977.2    13609.214   -1370.5788    77.130717    89.063572    81.378838    1803.9453   0.23498205   0.23505024   0.33478004   0.80481232  0.029070536  0.030211875  0.075793581   0.13507599 
  987000   -1794924.2    13566.996     -1027.88    77.130717    89.063572    81.378838    1798.3491   0.23343482    0.2376993   0.33931107   0.81044519   0.02928541  0.029851519  0.078948614   0.13808554 
  988000   -1794878.4    13525.065   -433.78563    77.130717    89.063572    81.378838    1792.7911   0.23426467    0.2369811   0.33901615   0.81026192  0.029331761  0.029973792  0.079388789   0.13869434 
  989000   -1794898.3    13645.273   -1130.3803    77.130717    89.063572    81.378838    1808.7249   0.23464705   0.23656158   0.33974256   0.81095119  0.028674877  0.029789902  0.080049554   0.13851433 
  990000   -1794935.8    13641.441   -611.96318    77.130717    89.063572    81.378838    1808.2171   0.23449564    0.2372595   0.33797392   0.80972906  0.029045088  0.029915542  0.078630247   0.13759088 
  991000   -1794938.7    13616.669   -1788.1375    77.130717    89.063572    81.378838    1804.9335   0.23406454   0.23757872   0.33834813   0.80999139  0.029439627   0.02969575  0.079504595   0.13863997 
  992000   -1794905.8    13590.637   -987.64596    77.130717    89.063572    81.378838    1801.4828   0.23471939   0.23876551   0.34050351   0.81398842   0.02875438  0.029999926  0.078855191    0.1376095 
  993000   -1795006.8    13513.314   -1523.3905    77.130717    89.063572    81.378838    1791.2335   0.23311897   0.23800477    0.3409982   0.81212194  0.028455923  0.029418201  0.077611517   0.13548564 
  994000   -1794934.4    13652.442   -1024.6154    77.130717    89.063572    81.378838    1809.6752   0.23409201   0.23709826   0.34174781   0.81293809  0.028556234  0.030237103  0.080136713   0.13893005 
  995000   -1794924.5    13504.597   -1212.4056    77.130717    89.063572    81.378838    1790.0779   0.23424168   0.23865358   0.33839136   0.81128663  0.029264944  0.030605041  0.077878881   0.13774887 
  996000   -1794957.8    13556.377   -987.15469    77.130717    89.063572    81.378838    1796.9415   0.23420756   0.23795829   0.34029865    0.8124645  0.028540239  0.030016652  0.081213849   0.13977074 
  997000   -1794878.6    13636.003   -640.02221    77.130717    89.063572    81.378838    1807.4962    0.2340877   0.23775115   0.34234319   0.81418204  0.028796183  0.029506814  0.080028009   0.13833101 
  998000   -1794934.3    13573.748   -1013.1668    77.130717    89.063572    81.378838    1799.2442   0.23343145   0.23641167   0.33894865   0.80879177  0.028843355  0.029454505  0.078687078   0.13698494 
  999000   -1794815.5    13629.768    -37.80172    77.130717    89.063572    81.378838    1806.6698   0.23537608    0.2380296   0.34157065   0.81497633   0.02875373  0.030279975  0.080735297     0.139769 
 1000000     -1794948    13489.114   -1341.9086    77.130717    89.063572    81.378838    1788.0256   0.23430436   0.23735766   0.34293015   0.81459217  0.028050037  0.028607188  0.079140907   0.13579813 
Loop time of 135352 on 15 procs for 1000000 steps with 58365 atoms

Pair  time (%) = 87146.9 (64.3853)
Kspce time (%) = 41420.1 (30.6017)
Neigh time (%) = 1967.71 (1.45377)
Comm  time (%) = 3237.92 (2.39222)
Outpt time (%) = 4.27136 (0.00315573)
Other time (%) = 1575.33 (1.16387)

Nlocal:    3891 ave 3926 max 3840 min
Histogram: 3 0 1 0 2 0 0 2 5 2
Nghost:    18536.5 ave 18642 max 18410 min
Histogram: 3 2 1 0 0 1 1 2 1 4
Neighs:    1.48801e+06 ave 1.52718e+06 max 1.44027e+06 min
Histogram: 2 0 1 2 0 3 2 1 2 2

Total # of neighbors = 22320196
Ave neighs/atom = 382.424
Neighbor list builds = 31683
Dangerous builds = 0
