
variable      mytemp equal  1600
# ------------------- Configuration ---------------------
read_data	CrO.dat
  orthogonal box = (0 0 0) to (77.301 89.2602 81.5585)
  1 by 5 by 3 MPI processor grid
  reading atoms ...
  58365 atoms

mass		1  15.9994
mass            2  51.9961

# -------------------- FORCE FIELDS ----------------------
pair_style buck/coul/long 10.0 10.0
pair_coeff    * * 1e-30 1e-30 0.0
pair_coeff    1 2 1204.18 0.3165   0.0
pair_coeff    1 1 9547.96 0.21916  32.0

kspace_style    pppm 0.0001



##-------------------- energy minimization ---------------

#compute   aE   all pe/atom
#min_style  fire

thermo          100
thermo_style    custom step pe pxx pyy pzz pxy pxz pyz lx ly lz temp

minimize      1e-8 1e-8 1000 1000
WARNING: Resetting reneighboring criteria during minimization (../min.cpp:168)
PPPM initialization ...
  G vector (1/distance) = 0.308705
  grid = 72 80 75
  stencil order = 5
  estimated absolute RMS force accuracy = 0.00180213
  estimated relative force accuracy = 0.000125151
  using double precision FFTs
  3d grid and FFT values/proc = 58144 28800
Memory usage per processor = 12.4992 Mbytes
Step PotEng Pxx Pyy Pzz Pxy Pxz Pyz Lx Ly Lz Temp 
       0   -1799682.3   -135067.89   -133757.49   -29466.109    6.1317072    39.388853    76.595173       77.301      89.2602      81.5585            0 
      83   -1808294.3   -84909.514   -84971.629   -185038.56    36.932996   -9.5850176   -38.636215       77.301      89.2602      81.5585            0 
Loop time of 29.2785 on 15 procs for 83 steps with 58365 atoms

Minimization stats:
  Stopping criterion = energy tolerance
  Energy initial, next-to-last, final = 
        -1799682.25738     -1808294.26063     -1808294.27869
  Force two-norm initial, final = 872.615 1.03103
  Force max component initial, final = 27.6423 0.162854
  Final line search alpha, max atom move = 0.0276424 0.00450168
  Iterations, force evaluations = 83 229

Pair  time (%) = 23.1802 (79.1714)
Kspce time (%) = 5.68647 (19.422)
Neigh time (%) = 0.120496 (0.411551)
Comm  time (%) = 0.220069 (0.751638)
Outpt time (%) = 0 (0)
Other time (%) = 0.0712742 (0.243435)

Nlocal:    3891 ave 3946 max 3786 min
Histogram: 3 0 0 1 0 1 2 1 0 7
Nghost:    18548.7 ave 18753 max 18329 min
Histogram: 6 0 0 0 0 0 1 3 2 3
Neighs:    1.46765e+06 ave 1.51863e+06 max 1.40517e+06 min
Histogram: 1 0 2 1 3 1 3 1 1 2

Total # of neighbors = 22014812
Ave neighs/atom = 377.192
Neighbor list builds = 2
Dangerous builds = 0

## --------------------- system relax --------------------
#dump          1 all xyz 100 xyz/all.xyz
#dump_modify   1 element O Cr

velocity      all create ${mytemp} 4928459 dist gaussian
velocity      all create 1600 4928459 dist gaussian
fix           1 all npt temp ${mytemp} ${mytemp} 0.1 iso 0.0 0.0 2
fix           1 all npt temp 1600 ${mytemp} 0.1 iso 0.0 0.0 2
fix           1 all npt temp 1600 1600 0.1 iso 0.0 0.0 2
run      50000
PPPM initialization ...
  G vector (1/distance) = 0.308705
  grid = 72 80 75
  stencil order = 5
  estimated absolute RMS force accuracy = 0.00180213
  estimated relative force accuracy = 0.000125151
  using double precision FFTs
  3d grid and FFT values/proc = 58144 28800
Memory usage per processor = 10.2492 Mbytes
Step PotEng Pxx Pyy Pzz Pxy Pxz Pyz Lx Ly Lz Temp 
      83   -1808294.3   -61940.519   -62048.269    -162199.1    76.593734    41.454908    72.401847       77.301      89.2602      81.5585         1600 
     100   -1800800.1   -29623.673   -28871.025   -131111.51   -69.260575    185.11551   -147.13163    77.290464    89.248034    81.547384    609.13118 
     200   -1802117.2    -5004.461   -4695.8834   -108611.94   -468.34401   -45.107308   -358.95816    77.009795    88.923943    81.251256    843.51564 
     300   -1801879.1    24509.666    24372.084   -83274.146   -74.348409    405.66337   -28.351778    76.793519    88.674207    81.023069    920.01866 
     400   -1801599.9    42277.827    42792.131   -68874.218    831.93713    436.68424    110.93764    76.675052    88.537412    80.898076    1017.7002 
     500   -1800876.8    48479.979    48801.786   -63347.727    361.33646    200.32743    782.71114    76.660872    88.521038    80.883115    1070.5176 
     600   -1800377.4    45591.719    46271.495   -65811.428   -568.41122    466.05658    343.89846    76.716478    88.585247    80.941785    1161.3317 
     700   -1799642.8    40873.641    41365.703   -69618.163    209.64227    371.99051    709.54645    76.793183    88.673819    81.022714    1227.0182 
     800   -1798995.5    39198.646    39119.189   -71264.716    182.97383    115.05346    752.83921    76.853965    88.744005    81.086844    1307.0613 
     900   -1798321.5    39129.966    38512.071   -70798.191   -50.020964    658.30894    19.453085     76.89482     88.79118    81.129949    1381.6213 
    1000     -1797756    38592.724    38327.917   -71113.762   -66.988687    409.48135   -436.81395    76.926493    88.827753    81.163366    1462.8376 
    1100   -1797161.5    39423.428    39011.472    -71268.25    687.16595   -658.06094     277.0324     76.95734    88.863373    81.195913    1525.3493 
    1200   -1796717.1    38994.637    38943.715   -71994.837   -593.19561   -446.89623   -453.41982    76.989932    88.901007    81.230299    1584.4959 
    1300   -1796366.8    38213.219    36999.578   -72930.378   -413.96878   -707.80757     57.09185    77.021012    88.936895    81.263091    1619.6177 
    1400   -1796227.1    35663.633    36056.625   -74841.707    981.03382     475.6393    654.09175    77.044132    88.963592    81.287484    1630.2441 
    1500     -1796323    34732.458    34325.315   -76349.393    158.71394    333.92042   -112.77118    77.051667    88.972293    81.295434    1611.8089 
    1600   -1796563.3    33756.054    33999.816   -76907.021   -303.93615   -71.633975   -563.51662     77.03995    88.958763    81.283072    1590.0548 
    1700   -1796672.3    35977.139    36601.813   -75313.748    464.09659     291.6301    155.19416    77.015715    88.930779    81.257502    1574.0993 
    1800     -1796674    38750.598    39813.642   -72793.447     326.1234    52.697067    246.02404    76.994952    88.906803    81.235595    1585.0639 
    1900   -1796499.2    40375.416    39871.783   -71176.987    -462.2458    375.78202   -363.35934    76.992485    88.903955    81.232993    1598.6412 
    2000     -1796371    38978.488    39549.447   -72793.564   -399.18844   -165.81345   -693.97861    77.009063    88.923097    81.250484    1610.5008 
    2100   -1796427.6    37209.142    36035.347   -75609.564    210.94888    133.33607    723.85572    77.031865    88.949427    81.274542    1617.4807 
    2200   -1796510.3    34300.229     35111.22   -75734.178   -923.03901    181.78349   -424.54403    77.043096    88.962395    81.286391    1602.4022 
    2300   -1796590.3    34966.793    34935.377   -76326.494   -873.11503    21.804638   -212.47651    77.034561     88.95254    81.277386    1587.9297 
    2400   -1796637.1    36105.698    37133.876   -74088.451   -534.62217    591.65203   -642.82439    77.014113    88.928929    81.255812    1590.2768 
    2500     -1796546      39361.2    39777.373   -72684.918    417.47781   -355.14746    123.90519    76.999412    88.911953    81.240301    1595.4884 
    2600   -1796445.5    39055.993    39708.388   -72301.225   -106.15753    523.01791   -377.38467    77.001962    88.914898    81.242992    1603.7854 
    2700     -1796427    37449.447    37847.276   -73713.944   -141.06945    317.33121   -416.60629    77.018155    88.933597    81.260077    1606.7065 
    2800   -1796480.8    35943.708    34935.099   -74727.032   -101.93287    125.56035   -953.51376    77.033359    88.951153    81.276118    1601.9742 
    2900   -1796542.8    34993.521    34011.996   -75615.793   -975.69618   -485.15544   -582.87224    77.035573    88.953709    81.278454    1593.1329 
    3000   -1796623.4    35806.339    36305.892   -74908.773   -849.75801   -283.49797   -161.81576    77.023288    88.939523    81.265492    1598.4721 
    3100   -1796576.3    38597.594    38338.063   -72442.913     129.2939   -569.60672    241.46872    77.007456    88.921242    81.248789    1600.1235 
    3200   -1796494.3    39394.108    38974.773   -72978.085   -306.66062    300.51912      570.888    77.002853    88.915927    81.243932    1601.1428 
    3300   -1796483.7    38492.442    37644.081   -73385.914   -447.92836   -386.05288   -452.78763    77.010975    88.925306    81.252502    1604.7815 
    3400   -1796488.2    37326.743    36771.335   -74055.902   -426.15872   -329.57759   -138.36683    77.024549     88.94098    81.266823    1599.7026 
    3500   -1796558.8    35030.857    35859.905   -76540.605   -750.14249     -567.209   -514.03438    77.032694    88.950384    81.275416    1600.8799 
    3600   -1796505.6    35851.548    36561.358   -75387.914   -180.44898    555.79675   -347.95729    77.028349    88.945367    81.270832    1590.6413 
    3700     -1796540    37447.972    36939.533   -74287.443    346.24946    99.154374    153.12097    77.016349    88.931511    81.258171    1598.9034 
    3800   -1796532.1    38069.931    38359.458   -73340.684    -268.3068   -288.70627    227.11439    77.007243    88.920996    81.248564    1603.1717 
    3900   -1796485.1    38220.557    39266.771     -73613.4     534.5596    230.27254    509.83342    77.008291    88.922206     81.24967    1597.9273 
    4000   -1796557.9    37619.264    36432.506   -74610.725   -32.159826   -160.50998    428.15017      77.0171    88.932378    81.258964    1603.4238 
    4100   -1796504.9    35971.403    36634.233   -74657.707   -462.32531    147.37606   -658.44555    77.025418    88.941982    81.267739    1592.0884 
    4200   -1796557.3    36263.799    36157.398   -74786.286    430.22732   -458.67052    621.08067    77.027251    88.944099    81.269673    1600.9339 
    4300   -1796509.2    37415.605    36098.003   -74457.175   -281.67179   -508.90637    131.51006    77.023815    88.940132    81.266048    1600.6241 
    4400   -1796584.9    37595.626    37100.811    -74312.04    131.20104   -545.34388    503.10448    77.018423    88.933906     81.26036    1614.5508 
    4500   -1796500.4    36865.962    37895.243    -73927.51   -183.73716    603.99181    -212.5684    77.015712    88.930775    81.257499    1600.0555 
    4600   -1796562.8    37163.381     37378.59   -74571.691    434.80676   -181.49573   -248.90712    77.015248     88.93024     81.25701    1601.7143 
    4700   -1796599.5    37393.758    37142.079   -74792.168   -148.01901   -331.91922   -362.38696    77.017274    88.932579    81.259147     1601.582 
    4800   -1796577.5    36923.074     37254.82   -75199.751   -125.87799    192.36432   -477.50815    77.019649    88.935321    81.261653    1600.5444 
    4900   -1796516.1    36345.347    37627.188   -75393.782   -166.91174    600.73671   -177.83599    77.019943    88.935661    81.261963    1599.7581 
    5000   -1796518.9    37247.373    37401.109   -74953.867   -199.62584    879.47534   -236.19418     77.01902    88.934595     81.26099    1606.1234 
    5100   -1796486.7    36358.886    37648.273   -74745.082   -116.59917    261.32296   -10.724598    77.019072    88.934655    81.261045    1601.7603 
    5200   -1796532.9    37238.636    37268.536   -73517.037    300.79105    451.46504    218.14265    77.017686    88.933054    81.259582    1601.8172 
    5300   -1796550.7    37408.532    36640.656    -74558.59     487.6549   -581.55755    288.14753    77.017574    88.932925    81.259463    1595.7728 
    5400   -1796536.6    36269.962    36905.543   -73998.299    579.22826   -97.845226    78.910578    77.017123    88.932404    81.258988    1591.8033 
    5500   -1796621.8    36737.195    37430.522   -74207.494   -197.78237   -152.73993    498.43476    77.015735    88.930802    81.257523    1608.1817 
    5600   -1796531.4    38120.603    37017.144   -73834.566     76.63649    53.988714   -25.288187    77.015039    88.929998    81.256789    1604.3707 
    5700   -1796520.6    37480.627    37298.519   -74217.451    479.72407   -268.86019    58.957746    77.016542    88.931734    81.258375     1606.596 
    5800   -1796569.8    36957.403     36676.49   -74814.592    174.02408   -71.678258    8.5707225    77.018666    88.934187    81.260616    1609.3756 
    5900     -1796508    36443.164     36420.25    -73565.93   -239.02332   -176.34718   -22.307848    77.020093    88.935834    81.262121    1592.8165 
    6000   -1796626.4    36623.479    36552.649   -74490.866    730.30119   -312.05873    15.138163    77.018388    88.933866    81.260323    1603.9257 
    6100     -1796565    37787.193    37040.811    -73649.94   -423.19043   -522.27631    544.53531    77.014636    88.929532    81.256364    1598.7678 
    6200   -1796485.2    37499.868    36791.545   -73242.452    346.60628     160.5957   -70.717498    77.013396    88.928101    81.255055    1595.2547 
    6300   -1796505.7    37891.323    36014.094   -73802.824     771.1988   -367.49986    82.106477    77.015674    88.930732    81.257459    1603.4306 
    6400     -1796493    37856.927    36480.142    -73916.02   -236.81547   -112.57419   -806.06906    77.019385    88.935017    81.261375    1600.2294 
    6500   -1796544.4    36059.963    35963.934   -74438.128    -503.8087    371.98752   -342.14371    77.021984    88.938017    81.264116    1600.4989 
    6600   -1796521.6    37079.811    36292.625   -73914.609    -143.9544    40.621775    56.238661     77.02016    88.935912    81.262192    1592.3302 
    6700   -1796552.3    37933.125    37201.622   -73670.968   -375.86891   -550.35379   -715.29334    77.014907    88.929845     81.25665    1597.5839 
    6800   -1796524.9    37186.189    38031.194   -74473.707   -526.78189    2.1054989   -309.64165    77.011853    88.926319    81.253427    1599.3993 
    6900   -1796466.2    38661.271    38081.696   -73399.779   -423.46295   -12.624084   -193.62634    77.012922    88.927554    81.254556    1595.9739 
    7000   -1796464.1    38429.083    36537.658   -73931.553   -423.63999   -1160.9856   -769.30492    77.017422     88.93275    81.259304    1594.7237 
    7100     -1796590    36854.857    35104.556   -74362.531    177.95054    -774.8385   -164.61338    77.022313    88.938398    81.264464    1606.7652 
    7200   -1796514.1    35594.652    36336.349   -75061.433     133.3876    322.24216    430.91988    77.022569    88.938693    81.264734    1592.5562 
    7300   -1796519.2    37029.666    36676.785    -74674.11    311.74416     208.9442    45.084553    77.018087    88.933517    81.260005    1594.5702 
    7400   -1796478.1    37576.482    37153.788   -74270.762    174.84887    232.81179   -196.41614    77.012548    88.927122    81.254161    1593.2444 
    7500   -1796562.7    37353.662    37987.482   -73917.184   -389.84383    44.073907   -563.87791    77.011188    88.925551    81.252726    1607.3115 
    7600   -1796521.8    37439.466     38149.58   -73223.744    211.01515    5.3665248    -311.0954    77.016086    88.931207    81.257893    1600.7212 
    7700   -1796544.5    35603.327    36526.042   -74408.993    -464.2024    459.26886   -17.151613    77.023596    88.939879    81.265818    1600.0912 
    7800   -1796552.6     35340.75    36037.057   -74656.163   -338.43906    509.79555     146.4429    77.025965    88.942614    81.268317    1599.8044 
    7900   -1796575.7     35987.49    36978.354   -74427.757    343.56394    405.72595   -18.255006    77.020312    88.936087    81.262352    1604.9633 
    8000   -1796572.6    37523.558    37530.578   -74029.993    418.30443    279.88665   -166.97805    77.012944    88.927579    81.254579    1606.8104 
    8100   -1796552.5    37977.684    38112.997   -73521.993   -149.85596   -144.11256    330.83559    77.011095    88.925444    81.252628     1603.628 
    8200   -1796546.2    37333.577    37426.449   -73268.104   -745.72315   -124.41754   -377.57977    77.015407    88.930423    81.257178    1599.8843 
    8300   -1796565.2    36996.105    36402.654   -74639.781    705.07407    76.937455    464.94501    77.022009    88.938046    81.264143    1600.4951 
    8400   -1796488.2    35975.714    36444.655   -75315.042   -100.59761    227.93073    215.94335    77.025145    88.941667    81.267451    1591.6164 
    8500   -1796510.1    34815.913    37022.832   -74979.174   -474.12944     573.8699   -1172.2064    77.022098    88.938149    81.264236    1599.5672 
    8600   -1796538.2    38299.517     37987.43   -74489.868    824.18799    512.47205    582.32121     77.01539    88.930404     81.25716    1604.6724 
    8700   -1796524.9    37475.514    38210.989   -73860.519     229.7394   -69.431575    468.50675    77.011556    88.925976    81.253114    1599.3762 
    8800   -1796527.7    37400.981    37910.742   -73457.245    -86.14836    263.79204    199.49052    77.012487    88.927052    81.254097    1594.1166 
    8900   -1796594.5    37315.934    36541.394   -74570.826     391.2025   -379.97834    764.21859    77.017124    88.932406    81.258989    1600.8191 
    9000   -1796577.1    36020.882     35925.73   -74579.636    1124.8127   -535.78624     481.7451      77.0209    88.936766    81.262973    1601.2477 
    9100   -1796566.9     37143.52    37140.148   -74389.665    786.01725   -237.11759     572.2876    77.020455    88.936252    81.262504    1606.7189 
    9200   -1796492.6    36352.183    37863.923   -73856.055   -97.457263    455.31447   -313.56338    77.019095    88.934682    81.261069    1601.2258 
    9300   -1796553.6    36928.332    36189.808   -74966.717    781.03642   -164.60199    33.979175    77.018395    88.933874     81.26033    1606.2188 
    9400   -1796539.3      36933.5    37088.097   -73903.224   -91.341101    630.73822   -428.18469    77.016933    88.932185    81.258788    1596.8463 
    9500   -1796570.9    36702.154    36610.522   -73343.521    -339.6009   -691.32409   -334.85334    77.015321    88.930324    81.257087    1596.0601 
    9600   -1796556.6    37649.586    37350.907   -73581.086    625.51607   -438.64713    42.616078    77.014339    88.929189     81.25605    1595.5968 
    9700   -1796458.3    37376.163    37568.103   -73332.704   -489.72788   -123.23204   -186.47471    77.015777     88.93085    81.257567    1589.4904 
    9800   -1796523.8    36830.113    35875.024    -73904.29   -521.05679   -799.47256   -427.61921    77.018455    88.933943    81.260394    1604.2636 
    9900   -1796534.4     36250.52    36810.505   -73799.473   -118.81797   -362.64904   -185.86245    77.022171    88.938234    81.264314    1605.8106 
   10000     -1796517    37534.412    35853.713   -74149.548    124.51071   -569.66645   -43.202375    77.024499    88.940922     81.26677    1597.3007 
   10100   -1796490.5    37496.535        36321   -74533.185     107.1404    -189.5086   -20.397052    77.021972    88.938004    81.264104    1588.5254 
   10200   -1796591.9    37087.713    37440.291   -74691.903   -157.36102   -178.03266   -171.06733    77.014421    88.929285    81.256137    1600.7241 
   10300   -1796609.2    38976.425    37497.585   -73590.591    261.77661   -797.55375   -100.44945    77.007305    88.921067    81.248629     1606.706 
   10400   -1796508.8    37980.086    38125.086    -72469.44   -1040.7136   -136.98253    238.57859    77.007865    88.921714     81.24922     1597.003 
   10500   -1796550.2    37453.613    36807.221   -73817.797    90.854742   -112.03513    310.99807    77.016315    88.931472    81.258136    1604.0915 
   10600   -1796529.2     35938.44        36333   -74007.125     220.6147   -773.13797    -230.4771    77.026052    88.942715    81.268409    1599.3108 
   10700     -1796578    36238.466    35305.616   -74994.699    539.02586   -432.11425    590.92471    77.028656    88.945722    81.271157     1604.644 
   10800   -1796574.2    35942.379    37096.089   -74123.242    547.95647    -190.4851    361.79013     77.02152    88.937482    81.263627     1604.166 
   10900   -1796560.5    37200.622    38267.375   -72696.192    14.759116   -47.935971    139.12787    77.011568     88.92599    81.253127    1602.4363 
   11000   -1796584.9     38668.87    37682.145   -73838.969    300.48268   -103.13573    16.901862    77.007459    88.921245    81.248791    1604.6928 
   11100   -1796595.8    37207.311    38740.002   -73661.627    442.01189    383.62711    246.18982    77.011053    88.925396    81.252584    1603.1261 
   11200   -1796562.5     36657.69    38092.861   -74455.414    12.519548   -528.44361   -374.15191    77.019306    88.934925    81.261291    1598.5057 
   11300   -1796536.8    36633.838    35468.528   -74870.863    55.461235   -155.04545   -190.09165    77.025257    88.941797     81.26757    1598.7574 
   11400   -1796535.3    35939.371    36243.335   -75043.322    88.285865    204.47454    272.31637    77.025394    88.941956    81.267715    1603.1239 
   11500   -1796514.2    35885.594    37864.005   -74403.128   -87.064307    -534.2445   -168.47353    77.020076    88.935814    81.262104    1601.8294 
   11600   -1796521.3    37627.132    37807.538   -73885.408   -837.21497   -381.87506    18.243409    77.014398    88.929257    81.256112    1599.2963 
   11700   -1796563.3    36999.444    37622.402   -73764.947   -600.04968   -10.883383    90.070417    77.012012    88.926503    81.253596    1598.9012 
   11800   -1796600.3    37320.031    37720.238   -73574.925    678.42921   -247.91935    412.94938    77.012673    88.927266    81.254293     1599.799 
   11900   -1796603.2    36294.856    36863.727   -74468.909   -421.58396   -652.52419    82.283775    77.016037     88.93115    81.257842    1602.4052 
   12000   -1796520.8    36410.938    37170.254   -73956.926   -567.71817    148.92703   -60.429019    77.018655    88.934173    81.260604    1597.5159 
   12100   -1796489.9    36666.711     37050.76    -74308.33    737.45619   -1220.7339   -294.09034    77.020051    88.935785    81.262077    1598.6687 
   12200   -1796517.3    36933.938    36317.187    -74308.05    499.17749   -531.74456    159.38214    77.019356    88.934983    81.261344    1603.0455 
   12300   -1796539.3    37133.211    37122.877   -73112.877    210.50148    250.55512    91.326524    77.018125    88.933561    81.260045    1600.0205 
   12400   -1796544.9    37427.177     37115.35   -74257.492    180.43588   -146.08921    237.99863    77.016897    88.932144     81.25875    1594.1747 
   12500   -1796524.5    36962.989    37257.894   -73965.214    163.03897    119.63939    -419.1525    77.015251    88.930243    81.257013    1590.7061 
   12600   -1796569.1    36816.426     37489.99   -74262.782   -248.04206     690.6407    514.32974    77.014099    88.928913    81.255798    1600.9573 
   12700   -1796520.6    37291.738    38220.117   -73501.479   -404.48845    198.74511   -311.27286    77.015804    88.930881    81.257596    1599.1134 
   12800   -1796551.9    37117.102    37027.632   -74284.078    391.40286    118.92681    149.71145    77.019652    88.935325    81.261657    1605.9695 
   12900   -1796505.3    36556.811    37273.569   -74397.517    97.138927    87.090101    123.21147     77.02324    88.939468    81.265442    1598.3948 
   13000   -1796559.1    36740.278    35948.972   -74963.742    256.78436    7.8802262   -52.202292    77.022687    88.938829    81.264858    1601.4054 
   13100   -1796585.4    37499.335    36419.284   -73189.838   -817.37336   -285.14199   -153.69922    77.017943    88.933352    81.259853    1600.8813 
   13200   -1796576.2    37718.592    36784.549   -73874.494    124.08432   -453.60115   -45.613355    77.013276    88.927963    81.254929    1599.2988 
   13300   -1796571.1    38086.446    37313.805   -73232.115     48.90153   -283.22683   -25.399461    77.011556    88.925976    81.253115    1602.0918 
   13400   -1796546.5    37910.266    38016.133    -74035.15   -3.2910444    284.36609   -190.31598    77.014979    88.929929    81.256726    1602.8528 
   13500   -1796543.2    37482.124     36640.85   -74210.582   -618.39138   -284.26908   -496.11022    77.021517    88.937479    81.263624    1602.1284 
   13600   -1796534.7    35750.307    36891.101   -74115.295     312.6277    125.78711    -386.2897     77.02503    88.941535    81.267331    1599.0379 
   13700   -1796513.4    35504.102    36484.074   -75250.658    16.651264    335.38216    317.76252    77.022949    88.939132    81.265135    1594.5589 
   13800   -1796566.7    37677.253    37236.071   -74452.725   -119.84323   -254.68152    178.85405    77.015477    88.930504    81.257251    1602.2711 
   13900   -1796551.5    38200.236    38084.655   -73483.356    197.60801   -494.02347    126.35386    77.008755    88.922742    81.250159    1600.9011 
   14000   -1796563.2     37557.82    39065.669   -73326.961    735.36239    34.627201    965.52451    77.009379    88.923462    81.250817    1601.1701 
   14100   -1796575.9    37367.721    36552.882   -74731.218   -29.472909   -279.18076    620.81444    77.017654    88.933017    81.259548    1600.3945 
   14200     -1796481    36625.417    36565.439   -75616.852    737.23515   -66.694021     882.7555    77.027013    88.943824    81.269422    1588.4146 
   14300   -1796485.9    35204.159    37241.313   -75492.557   -135.75046    167.47074   -321.88963    77.028795    88.945883    81.271303    1593.5432 
   14400   -1796520.1    35720.328    37001.167   -74894.444    185.78967    707.29701    20.121952    77.021405    88.937349    81.263506    1602.3178 
   14500   -1796527.8    38451.593    37872.548   -73800.115    982.99617   -160.91244    389.61338    77.010509    88.924767    81.252009    1603.4105 
   14600   -1796521.5    38135.265    39590.605   -73295.981     440.0403    239.26586   -351.02232     77.00533    88.918787    81.246545    1595.6324 
   14700   -1796564.6    36958.295    39021.445   -74752.779   -3.9791309    340.02616    119.25554    77.009866    88.924025    81.251331    1592.8898 
   14800   -1796588.9    36867.722    36978.073   -74680.057    29.340106     188.7895   -339.64749    77.018222    88.933674    81.260148     1595.569 
   14900     -1796558    37434.269    35875.911   -74653.992     -367.455   -112.89501   -823.16085    77.023631    88.939919    81.265854     1599.465 
   15000     -1796530    36014.648    37640.316   -74026.614   -309.20437    819.28374   -760.47438    77.022929    88.939108    81.265113    1606.3456 
   15100   -1796509.4    36583.599    37892.095   -74082.828    -755.0352     -116.914   -816.79844    77.019588     88.93525    81.261588    1606.4339 
   15200   -1796547.9    37540.394    35851.739   -74052.538   -102.70312   -290.88924    -304.3602    77.016625     88.93183    81.258463    1604.7052 
   15300   -1796597.9    36241.944    37426.684   -73600.283   -331.45776    663.78887   -335.62769    77.014601    88.929492    81.256327    1600.7127 
   15400   -1796614.7    37000.353    37788.934   -73547.311    629.71146   -14.919551   -251.42675     77.01318    88.927851    81.254827    1596.9903 
   15500   -1796557.8     37171.54        37117   -73195.373    549.71549   -252.60241    506.24975    77.014084    88.928895    81.255781    1593.8003 
   15600   -1796536.8    37135.874    36892.729   -73598.882   -136.36356    551.92953    204.02065    77.016304    88.931458    81.258123    1601.0485 
   15700   -1796570.9    36824.319    37248.631   -73388.943    579.31697    905.53263    283.68686    77.019684    88.935362     81.26169    1613.0564 
   15800   -1796482.6    36781.683    36847.017   -73854.132   -357.68761   -187.09774   -163.65321    77.024335    88.940732    81.266597    1600.0535 
   15900   -1796494.9    36120.694    35717.242   -74514.435    567.57087   -810.40321   -36.746154    77.025838    88.942468    81.268183    1593.8064 
   16000   -1796586.7    35578.629     36114.78   -75035.093   -131.19348   -93.997888   -24.568567    77.020686    88.936519    81.262747    1597.9903 
   16100   -1796580.2    38030.828    36893.316    -74165.16    313.65861   -277.21873    165.83643    77.009652    88.923778    81.251105    1595.9262 
   16200   -1796550.1    38602.953      38899.4   -72869.833   -158.23559    571.41489   -154.48302    77.003153    88.916274    81.244249    1597.7741 
   16300   -1796549.1    38153.487    38497.694   -72845.185    517.32484    561.68528     1215.451    77.010227    88.924441    81.251712    1602.9659 
   16400   -1796523.6    35390.567    36244.047   -74598.306    606.92585    135.10591    862.66498    77.026774    88.943549     81.26917     1600.789 
   16500   -1796523.2    33817.245    34811.683   -75642.573   -133.47997    215.04806    251.46409    77.036711    88.955023    81.279655    1599.9222 
   16600   -1796522.4    35928.975    35503.837   -74898.284   -438.88728   -208.91059    270.01176    77.030128    88.947421    81.272709     1598.657 
   16700   -1796567.7    37038.337    38195.027   -73257.144    531.09933    582.95176    167.25994    77.011431    88.925832    81.252982    1603.6379 
   16800   -1796608.4    38097.306    39232.121   -72342.202    782.77388     406.0293    682.09639    76.996955    88.909116    81.237709    1606.0964 
   16900   -1796584.9    38122.319    38573.393   -71164.368    214.53629    230.56221   -3.4912342    76.998685    88.911114    81.239534    1598.5553 
   17000   -1796566.2    36382.434    37252.184   -72168.816    317.52034    433.88335   -546.16044    77.014993    88.929945    81.256741    1594.5456 
   17100   -1796581.2    34923.607    34563.239   -73578.553    896.18875   -125.15104   -165.26418    77.031992    88.949574    81.274676    1601.6066 
   17200   -1796485.4    34948.512    34249.962   -74492.358    86.151387    119.69593    453.98187    77.036414     88.95468    81.279341    1598.3296 
   17300   -1796481.1    35999.179    35799.197   -73621.981    13.082282    261.25809    518.73605    77.026357    88.943067    81.268731    1603.4205 
   17400   -1796512.5    36474.076    38546.641   -72314.742    444.42917    623.57386   -188.15535    77.010979     88.92531    81.252505    1602.1039 
   17500   -1796626.1     36811.12    38069.705   -71589.278    460.35648    1051.1042    342.62257    77.003312    88.916457    81.244417    1605.8267 
   17600   -1796625.2    37301.225    38997.707   -72673.226    198.42006    828.93032    180.10728    77.007193    88.920938    81.248511    1596.4759 
   17700   -1796567.1    36038.641    37095.578   -73515.369    378.09553    168.27101    103.49748    77.017854    88.933249    81.259759    1589.6673 
   17800   -1796550.3     34456.82    35206.276   -74842.084    161.27639    1337.9903      222.395    77.026293    88.942993    81.268663    1599.4349 
   17900   -1796476.2    36733.476    36028.012   -73648.393    328.22515    702.87676   -356.45207    77.025495    88.942071    81.267821    1603.4077 
   18000   -1796501.9    37809.708    37113.025   -73343.425    440.87263    595.32323    789.38983    77.020096    88.935838    81.262125    1609.9582 
   18100   -1796549.5    37521.709    36754.081   -73784.597    266.36915    611.05818    81.939803    77.016071    88.931189    81.257878    1605.3805 
   18200   -1796630.4    37021.564    37376.072   -74605.421      277.031    91.169029   -521.93702    77.014542    88.929424    81.256265    1600.0918 
   18300   -1796595.7    37863.918    37611.029   -73894.481    31.438233   -706.18817   -630.55985    77.013757    88.928518    81.255436    1589.3449 
   18400   -1796598.3    37088.782    36281.024   -74166.721   -826.73428    316.87523   -254.77362    77.013259    88.927942    81.254911    1598.1356 
   18500   -1796525.2    37528.679    38435.101   -73355.782   -130.85161    4.2752248    -489.4967    77.013647    88.928391     81.25532    1603.4878 
   18600   -1796524.2     37449.63    38639.711   -73000.314    49.720796   -11.037311    21.533452    77.018259    88.933716    81.260186    1610.8254 
   18700   -1796516.2    36175.911    36016.434   -75286.639   -496.05181   -216.38122   -311.15642    77.026242    88.942934    81.268609    1604.4805 
   18800   -1796477.2    36468.296    35930.039   -73974.913    231.45268   -239.64969    84.240581    77.029196    88.946346    81.271726    1587.8056 
   18900   -1796518.6     36529.65    35834.239   -74741.199    -673.1848   -59.869042   -159.73612    77.022012    88.938049    81.264146    1585.9382 
   19000   -1796598.7    37853.775    38228.189   -73187.539   -427.67703    195.73745    455.76414    77.008136    88.922027    81.249506    1598.9734 
   19100   -1796574.9     39009.33    39284.132   -72817.712    -428.9961   -290.93133     80.39793    77.000197     88.91286     81.24113    1603.9425 
   19200   -1796503.2    39104.533    37687.528   -73322.179   -16.835248   -22.279447   -149.92191     77.00591    88.919456    81.247157    1600.1728 
   19300   -1796550.3    36499.407    36372.144   -75027.175   -285.57856   -7.6062666    380.99826    77.020066    88.935803    81.262093    1604.2669 
   19400   -1796564.8    35851.312    35013.551   -74907.029   -226.30559    -592.5907    272.49089    77.030254    88.947567    81.272842    1600.3844 
   19500   -1796551.2    35056.843    35818.327   -74940.962   -156.68281   -50.846427    344.03757    77.028715     88.94579    81.271218    1595.6947 
   19600   -1796525.9    37326.588    36360.855    -74168.41   -15.898083   -267.99197    266.27414    77.015589    88.930633     81.25737     1594.696 
   19700   -1796497.6    39100.579    39305.219   -72339.566   -295.31704    163.91379   -353.86343    77.002017    88.914961     81.24305    1596.0455 
   19800   -1796516.6    39303.421    37996.574   -71581.153   -979.97148   -70.101792   -1106.5045    77.002111     88.91507    81.243149    1598.5412 
   19900   -1796553.3    37153.599     35746.72   -73234.976    155.96867      189.681    -82.74761    77.016297    88.931451    81.258116     1598.654 
   20000   -1796503.1    34813.836    35903.752   -74203.447   -530.70409   -399.71437   -276.64689    77.031899    88.949467    81.274578    1588.9062 
   20100   -1796497.7    35100.082    34582.025   -74565.592    -414.0979    213.65126   -537.11691    77.036768    88.955089    81.279715    1591.2532 
   20200   -1796481.8    36385.086    35591.184   -73277.806   -508.53768   -437.83781   -864.85577    77.027486    88.944371    81.269922    1596.4696 
   20300   -1796545.3    38053.701    38170.892   -72849.522    289.69557   -169.76908   -524.36923    77.011407    88.925805    81.252957    1608.6893 
   20400   -1796516.6    38351.019    38970.638   -71537.732   -273.96953   -445.50986    36.224619    77.003709    88.916915    81.244835    1599.4665 
   20500   -1796557.4    37185.899    37326.472   -72622.237    577.84944   -193.88082    438.22862    77.009803    88.923952    81.251265     1594.744 
   20600   -1796599.9    36026.311    36219.592    -74183.06   -328.22438   -188.36947   -142.15489    77.020876    88.936738    81.262948    1594.2922 
   20700   -1796597.7    34407.151    35787.509   -75125.178   -1006.1973    46.529445   -48.717811    77.027529     88.94442    81.269967    1599.7198 
   20800   -1796517.2    36139.618    36269.821   -74551.866   -718.24567    463.18388   -250.55372    77.024913    88.941399    81.267207    1602.4975 
   20900   -1796481.2    37255.147    37365.402    -73403.61   -282.48112    74.901703   -219.26998      77.0185    88.933995    81.260441    1605.2651 
   21000   -1796480.7    37265.249    38398.515   -73066.422   -484.42014   -72.626555   -270.61426    77.016474    88.931655    81.258303    1599.8381 
   21100   -1796598.4    36421.871    36316.993   -75101.967    44.182546   -412.09935   -308.35964    77.019589    88.935252     81.26159    1602.1734 
   21200   -1796568.3    37199.588    36727.513   -74928.217    -616.4054   -476.34708   -353.87544    77.020669    88.936499    81.262729    1589.6983 
   21300   -1796556.7    36723.143     37081.78    -74654.62   -7.4440331   -216.17831    403.33858    77.018388    88.933865    81.260323    1591.5663 
   21400   -1796575.5    37489.112    37457.142   -73908.938     16.01297    -231.0312   -16.747374    77.015088    88.930055    81.256841    1605.9927 
   21500   -1796481.1    39127.452    36840.767   -72891.378   -564.64168   -614.11669    -192.3076    77.015208    88.930193    81.256967     1602.155 
   21600   -1796510.2     37585.65    36861.191   -73745.828    240.58059    -136.7304    47.149641    77.020033    88.935765    81.262058    1603.7392 
   21700     -1796521    35981.789    36342.545   -74503.136    469.78791    339.78665    440.73303    77.024932    88.941421    81.267227    1595.2224 
   21800   -1796576.3    36212.294    35563.349   -74834.253     61.49016   -269.74351    343.55063    77.023561    88.939838     81.26578    1594.6637 
   21900   -1796562.3    37713.506    36825.284   -74279.494     415.5236   -213.91641    570.84611    77.015501    88.930531    81.257276    1593.0804 
   22000   -1796574.3    37898.382    38178.182   -73000.631    124.11863    348.93827    198.73009    77.008394    88.922325    81.249778    1602.7787 
   22100   -1796541.4    37840.384    37330.903   -73578.742   -602.06908    -128.0495   -350.68083    77.010058    88.924246    81.251533    1606.1422 
   22200   -1796545.4    37804.824    36898.562   -74362.111   -338.03967   -545.69423   -111.48946    77.018515    88.934012    81.260457    1607.1283 
   22300   -1796590.9    35869.766    35881.529   -75514.237    264.67237   -581.89548   -256.76891    77.027215    88.944058    81.269636    1606.8668 
   22400   -1796571.3    36274.381    35863.821   -74839.095   -481.72677   -138.89248     201.0193    77.028635    88.945698    81.271134    1598.0447 
   22500   -1796548.6    36585.453    36271.295   -73984.356   -406.40962   -268.26767   -407.98629    77.020448    88.936244    81.262496    1594.2778 
   22600   -1796543.6    38128.379    38018.939    -73227.05    380.20839     243.1313    178.71215    77.008035     88.92191    81.249399    1598.1122 
   22700   -1796507.9    39021.639    38934.252    -72504.19    395.38782   -546.85562   -71.287097    77.003831    88.917056    81.244964    1597.9928 
   22800   -1796529.4     37376.74    37594.928   -73679.031   -189.99735   -120.52338    170.59694    77.012951    88.927587    81.254586    1600.2321 
   22900   -1796541.2    36797.092    36011.883   -75200.748    532.08479    194.29209    414.76214    77.027758    88.944684    81.270208    1597.3922 
   23000   -1796511.3    35051.661    35239.768   -76597.263     161.9792   -178.57649   -101.03737    77.034637    88.952628    81.277466    1591.1778 
   23100   -1796539.4    36421.964    35900.828   -74941.193   -453.93684   -518.25536    154.49108    77.026891    88.943684    81.269294    1597.4664 
   23200   -1796528.3    37824.999    38055.596   -73578.564    194.17387    447.64001    69.652908     77.01009    88.924284    81.251568    1600.7817 
   23300   -1796557.3    39541.946    39699.375   -71701.595    444.37337    -476.8755    596.00996    76.998278    88.910644    81.239105    1604.8145 
   23400   -1796535.2    38431.191    39300.044   -72199.277    378.99527    62.456619   -146.48953    77.004589    88.917932    81.245764     1596.561 
   23500     -1796557    35092.676    36403.846    -75272.54   -316.26645     340.4091   -196.20573    77.023358    88.939604    81.265566    1594.3816 
   23600   -1796565.7    35292.524    35709.807   -76897.293  -0.92226694   -487.62744    398.75164    77.036371     88.95463    81.279296    1595.6849 
   23700   -1796498.6    35010.729    36319.224   -76338.052   -446.16072     855.8699    296.67834    77.033384    88.951182    81.276145     1594.586 
   23800   -1796482.8    37262.002    38760.223   -74422.591    483.63539    777.98172   -102.08323    77.016581    88.931778    81.258416    1601.4182 
   23900   -1796517.4    38942.982    39472.631   -72408.003    103.84295    278.93322   -126.88726    77.001266    88.914094    81.242257    1605.2166 
   24000   -1796588.6    37761.411    38645.642   -73584.868    872.16981    372.57841    203.44779     77.00212     88.91508    81.243158    1603.1227 
   24100   -1796617.5    35999.825    36529.455   -74410.956    657.88846    132.98925    380.21504    77.015862    88.930948    81.257657    1595.8557 
   24200   -1796604.7    34790.044    36286.979    -74967.68   -445.09516    817.60697    67.264621    77.026961    88.943764    81.269368    1594.6294 
   24300   -1796580.5    35425.223    36456.973   -75211.943    673.17425   -416.84795    909.55572    77.027419    88.944294    81.269851    1603.7076 
   24400   -1796434.8    36522.616    36853.169    -73870.19   -161.69387    336.17162    112.17498     77.02034    88.936119    81.262382    1596.1664 
   24500   -1796472.7     39158.93    38356.185   -73420.829   -198.73422   -112.72153   -265.83914    77.012254    88.926782    81.253851    1601.9065 
   24600   -1796497.7    36567.259    39203.665   -73180.871    476.02121    443.29109   -201.44479    77.011443    88.925845    81.252995    1594.1134 
   24700   -1796591.2    36369.298    37833.561   -73814.192   -7.6461997    404.04161    -94.13141    77.015679    88.930738    81.257465    1594.5058 
   24800   -1796588.3      36829.7    36931.439   -75069.334   -768.22404   -181.50903    67.275432    77.019363    88.934991    81.261351    1592.3617 
   24900   -1796573.3    35814.293    36939.327   -75347.768   -86.089763    142.34877    195.28882    77.019593    88.935256    81.261594    1599.4673 
   25000   -1796545.2    36971.001    37914.649   -73826.113    588.28141    286.78291    2.3258234    77.016731    88.931952    81.258575    1606.4931 
   25100   -1796502.3    38119.062    37113.353   -73347.692   -211.36371    640.32317   -808.45064    77.016195    88.931333    81.258009    1604.3043 
   25200   -1796528.7     36236.25    37143.299    -74403.19   -713.21183   -153.37234    83.203603    77.018849    88.934398    81.260809    1601.3687 
   25300   -1796613.4    36194.097    37149.916   -75266.194    1136.5436    211.55819    560.20406    77.020464    88.936263    81.262513    1602.8944 
   25400   -1796621.4    36526.169    37463.711   -74524.308   -117.94796   -189.51295   -169.70945     77.01699    88.932251    81.258848    1599.8724 
   25500   -1796547.1    37226.584    37786.652   -74446.641    -578.6508    446.63885   -63.143953    77.013043    88.927693    81.254683    1594.7205 
   25600   -1796548.2    37588.781     38191.01   -73944.616    861.49747    545.49437    369.98139     77.01241    88.926962    81.254015    1603.4554 
   25700   -1796571.7    36508.494    37636.864   -74277.117   -101.41616   -346.07692    533.94346    77.016964    88.932221     81.25882    1610.8861 
   25800   -1796526.6    35975.582    37883.979   -75061.049   -562.18913     1055.215    579.46434    77.023517    88.939788    81.265734    1599.0849 
   25900     -1796528    36661.169    35610.212   -75472.638    266.05387    305.00712    275.61294    77.025089    88.941603    81.267392    1588.0168 
   26000   -1796594.9    36375.683     36476.31   -75208.415    510.19414    314.13125    439.64431    77.017516    88.932858    81.259402    1596.7573 
   26100   -1796579.8    37300.056    38381.858    -73454.11   -190.31459    537.97109    339.38571    77.006245    88.919843     81.24751    1599.8921 
   26200   -1796569.5    38005.772      38810.3   -73472.254   -54.939271    68.844421    229.21037    77.002294    88.915281    81.243342    1600.7112 
   26300   -1796562.1    37959.003    37716.926   -74076.797   -293.15132    321.23317   -449.29957    77.010762    88.925059    81.252277    1599.4992 
   26400   -1796478.3    35869.851    36596.474   -75954.482   -168.95035    745.55458   -644.95631    77.025593    88.942185    81.267924    1588.8557 
   26500   -1796544.2    35248.209    35707.192   -75397.747    337.46046    128.06007   -121.55046    77.033868     88.95174    81.276655    1604.7454 
   26600   -1796516.4    36484.138     35811.19   -74672.447   -407.28486   -238.78104   -274.57065    77.029839    88.947087    81.272404    1611.4139 
   26700   -1796525.3    36525.659    37531.094   -73869.176     622.4898    162.24254   -180.49277    77.018999     88.93457    81.260967    1610.6437 
   26800   -1796566.6    37385.243    37535.867   -73203.947   -23.494857    218.91374   -55.626995    77.009223    88.923282    81.250653    1600.9865 
   26900   -1796562.1    38192.614    38899.695   -73524.116   -709.42492    153.12052   -213.06633    77.006524    88.920166    81.247805    1597.2185 
   27000   -1796602.3    37819.578     36986.11   -74948.194   -653.83778   -477.63342   -327.90549    77.011825    88.926287    81.253399    1602.3279 
   27100   -1796564.2    36608.529      36577.5    -75076.57    470.71263   -92.294739    295.33434    77.019002    88.934574     81.26097    1601.4681 
   27200   -1796537.1    37032.822    36240.441    -74901.96    399.09764   -758.34029    43.110326    77.024481    88.940901    81.266752    1607.5267 
   27300     -1796498    36651.511    37009.862   -74705.222   -811.36854    50.114138   -305.05486    77.026352    88.943062    81.268726    1607.0301 
   27400   -1796497.8    36228.722    36061.153   -75407.586    558.38192    516.74618    663.34373    77.023643    88.939934    81.265867    1595.5331 
   27500   -1796568.5    37327.614    37720.601   -74037.988    811.94132    227.91846    512.81597    77.016532    88.931722    81.258365    1594.6932 
   27600   -1796549.9    37974.684    37428.171   -73392.419    89.444217   -617.74128   -16.651402    77.009331    88.923407    81.250767     1593.789 
   27700   -1796532.3    38375.646    37129.802   -73589.595    412.49919   -466.41782   -74.772414    77.007396    88.921172    81.248725    1598.3187 
   27800   -1796528.3    37601.793    36902.144   -74210.581    463.02039    25.531479    64.873351    77.012682    88.927277    81.254303    1605.6073 
   27900   -1796482.4    36683.429    36742.286   -75140.525    140.69178   -60.437944    160.08153    77.022881    88.939054    81.265064      1600.84 
   28000   -1796563.2    36191.593    35604.568   -75289.054    124.37697   -181.20961    319.69115     77.03117    88.948625    81.273809    1598.7427 
   28100     -1796597    34510.859    36049.872   -75787.264    853.91976    252.65915    678.68886    77.029151    88.946293    81.271678    1596.7826 
   28200   -1796592.8    36341.757    37988.593   -73866.415   -106.51197    -284.6761    281.81733    77.015693    88.930754    81.257479    1601.7436 
   28300   -1796518.2    39448.048    38284.011   -72849.477    209.49927   -191.07441   -140.11133     77.00306    88.916166    81.244151    1600.9745 
   28400     -1796549    38137.193    39191.793   -72008.122    340.13872   -448.07875    83.239737    77.002454    88.915467    81.243512     1606.648 
   28500   -1796495.4    37723.848    36964.183   -72933.114    -325.0109   -394.70285   -441.77646     77.01612    88.931247     81.25793     1592.386 
   28600   -1796603.5    34283.694    36114.344   -75538.534   -418.15531    297.99946  -0.58935644     77.03207    88.949665    81.274759     1591.248 
   28700   -1796593.5    34972.219    33732.248   -75883.368    125.21923   -250.10088    13.752431    77.033278    88.951059    81.276033     1581.997 
   28800   -1796615.8    36928.423    36233.866   -74126.726   -77.802724   -228.26167    59.781402    77.016146    88.931276    81.257957    1594.1316 
   28900   -1796586.7    38829.779    39213.645   -72671.091    491.06422    112.47114    -349.4432    76.996625    88.908735    81.237361    1602.6339 
   29000   -1796550.2    40275.511    39054.971   -71585.809   -23.673845    16.918234    199.24913     76.99315    88.904722    81.233694    1603.2125 
   29100   -1796593.1    37650.869    37622.643   -74184.801   -150.42274     85.03564   -46.279184     77.01055    88.924815    81.252053    1607.4136 
   29200   -1796528.4    34961.651    36396.728   -76268.131     29.21022    423.30642   -130.94213    77.034513    88.952485    81.277336     1590.555 
   29300   -1796588.4    33582.635    33355.741   -77862.323    113.04738   -527.20062    249.74268    77.044385    88.963884    81.287751    1595.2692 
   29400   -1796539.9    36590.443     36230.28   -75222.727   -147.30784   -674.42486   -364.94035    77.029393    88.946573    81.271933    1601.9874 
   29500   -1796536.9    38795.418     38921.26   -72833.135    324.83619    142.55304    331.66749    77.006253    88.919853    81.247519    1608.2611 
   29600   -1796526.1    39237.211    40296.301   -71732.704    556.74367    484.40823    455.22046      76.9946    88.906397    81.235224    1599.7773 
   29700   -1796575.3    39741.584    38239.154   -72543.273    68.748644   -454.52344    368.74896    77.002357    88.915354    81.243408    1597.8548 
   29800   -1796531.4    35543.399     37394.42   -74938.038    618.91393    418.17567    292.34931    77.023036    88.939232    81.265226    1589.9997 
   29900   -1796574.3    34492.906    34607.024   -77064.027   -240.99533    200.03278    21.278216    77.037772    88.956248    81.280774    1601.0631 
   30000   -1796539.9    34869.255    34857.287   -75035.876    -480.3163   -761.62481    -277.6903    77.034763    88.952774    81.277599    1604.4711 
   30100   -1796481.2    37287.494     36303.11   -73466.661    376.22145    63.989145   -19.297751    77.018881    88.934434    81.260842       1597.1 
   30200     -1796531    38331.826     39199.31   -73256.894    342.54494    414.40209    244.39681    77.004886    88.918274    81.246076    1600.1032 
   30300     -1796621    38025.057    38532.412   -72986.918    76.100936   -99.901484   -461.52775    77.003004    88.916102    81.244092    1603.7798 
   30400   -1796571.2     38030.16    37217.558   -73779.445   -458.36326   -264.45133    39.174519    77.012173    88.926689    81.253765    1591.5855 
   30500   -1796549.4    35974.477    36209.017   -74326.041    63.074243   -577.22671   -414.27403     77.02291    88.939087    81.265094    1592.2004 
   30600   -1796516.8    35640.751    36372.287   -74678.484   -820.62935    320.53447    4.0659607    77.027291    88.944145    81.269716    1604.3841 
   30700   -1796607.5    35936.069    36032.327   -75200.933    -481.4696    17.970201   -62.983756    77.025082    88.941594    81.267385    1616.9947 
   30800   -1796539.4    35842.971    38017.068    -74209.13    661.48274    708.45089   -305.71506    77.017753    88.933132    81.259653    1599.5522 
   30900   -1796587.2    37118.502    38078.747   -73862.899   -358.37815    435.44506   -108.93609    77.010338     88.92457    81.251829     1598.375 
   31000   -1796615.3    37811.004    38042.327   -72759.436    142.83036    177.69473   -67.087709    77.007886    88.921738    81.249242    1600.2043 
   31100   -1796563.9    37344.438    37282.837    -74738.61   -140.51524    329.46338    315.80707    77.012421    88.926975    81.254027    1599.7413 
   31200   -1796492.1    37797.044     37600.93   -73754.739   -450.18208   -604.46328     437.8432    77.019037    88.934615    81.261007    1607.2112 
   31300   -1796450.1    35941.447    37247.562   -74919.449   -289.15402   -187.42693    158.94111    77.027088    88.943911    81.269501    1599.3156 
   31400   -1796515.1    35885.948    35512.718   -75297.583   -682.95996   -319.63319   -171.63212    77.030092     88.94738    81.272671    1598.3525 
   31500   -1796527.5    34725.236    36578.321   -75649.803    107.69448    85.818374    221.16553    77.023991    88.940335    81.266235    1594.0629 
   31600   -1796559.4    37964.417    38383.758   -73952.604    37.152202    616.20382    239.51025    77.010769    88.925068    81.252284    1597.0152 
   31700   -1796563.2    39342.111      38544.3   -73219.834   -553.01111    52.739796    324.16066    77.002473    88.915489    81.243532     1600.535 
   31800   -1796470.5    38049.982    39072.476   -72573.628    481.56236    505.68452   -2.0313564    77.007276    88.921034    81.248599    1597.7706 
   31900   -1796497.3    36216.075    37737.384   -74321.383   -51.387847    121.18605    89.916497    77.022055    88.938099    81.264191    1604.7188 
   32000   -1796541.9    35101.186    35061.931   -76457.127   -326.35477    -130.2386   -24.835848    77.035384    88.953491    81.278255    1601.7518 
   32100   -1796546.9    34873.519    34628.789   -76140.279    363.87073    113.19588   -422.06621    77.033701    88.951548    81.276479     1593.675 
   32200   -1796548.2    36910.106    37839.432    -74673.24    282.89798   -177.79615    190.04262    77.016699    88.931916    81.258541    1595.3104 
   32300   -1796537.9    39042.997     39440.68   -72976.163    -189.4366    72.906666   -545.51794    76.999557     88.91212    81.240454    1596.9661 
   32400     -1796553    39668.914    39776.337   -72510.703   -472.29866    274.64631    -923.0228    76.996578    88.908681    81.237311    1599.3986 
   32500   -1796598.4    36627.406    37962.934   -74872.918   -368.32355   -312.94446   -1093.8812    77.009848    88.924004    81.251312    1598.3594 
   32600   -1796600.7    35710.673    36033.969   -76494.742   -605.96426    26.423081    340.63685      77.0265    88.943233    81.268882    1588.1518 
   32700   -1796547.9    35968.231    34933.684    -76336.99   -166.02094    458.07419   -106.51808    77.031445    88.948942    81.274099    1589.1211 
   32800   -1796554.9    36221.249    36745.298   -74733.507    -564.8484     87.86468   -24.009723    77.022321    88.938407    81.264472     1601.429 
   32900   -1796571.1    37553.714    38862.186   -73850.452    139.25437   -157.50824    276.57132     77.00908    88.923117    81.250502    1607.3129 
   33000   -1796624.1    39591.112    38387.919   -73827.635   -911.86081    43.091679    -626.1752    77.003252    88.916388    81.244353    1611.1608 
   33100   -1796539.3    37803.423    38714.715    -73694.03   -225.73763   -138.47551   -763.49122    77.009718    88.923854    81.251175    1588.5636 
   33200   -1796614.9    36511.302    36195.597   -75215.395    23.161541    97.744647   -308.03879    77.022268    88.938346    81.264417    1593.6889 
   33300   -1796545.5    36028.058     36227.23   -75369.689   -252.99891    259.46429    297.22817    77.028814    88.945904    81.271323    1593.1323 
   33400   -1796573.8    36365.394    36485.545   -75127.078   -1039.9705    300.84561    -10.16788    77.024792     88.94126    81.267079    1602.1562 
   33500   -1796510.3    37757.331     37303.97   -73737.064    349.64637    155.98655     407.8272    77.014228    88.929061    81.255933    1595.2778 
   33600   -1796630.3    38556.845    39024.412   -72947.132    195.17796    427.97617   -80.785476    77.006489    88.920125    81.247768    1610.9067 
   33700   -1796633.3    37069.056    39636.648   -73478.998   -250.68281    671.00752    318.12806    77.009908    88.924073    81.251375    1606.3776 
   33800   -1796628.7    36165.295    36905.527   -74979.716    282.43642    503.05411    246.59378    77.019852    88.935556    81.261867    1598.8884 
   33900   -1796590.6    35265.294     36582.78   -75354.422    -444.8375    235.22394    288.42822    77.025802    88.942426    81.268145    1596.2385 
   34000   -1796539.6    36854.233    36102.807   -74179.307   -721.50224    42.929935   -572.23097    77.022365    88.938458    81.264519    1604.1225 
   34100   -1796553.7    35868.635    37424.082   -74119.654    799.60986    1542.2134   -230.36292    77.015643    88.930696    81.257427    1607.7771 
   34200     -1796548    37140.842    39252.091   -73096.833     267.4721    16.799974    55.116902    77.011034    88.925374    81.252564    1600.5888 
   34300   -1796547.3    38515.865    37823.697    -73173.47   -1256.8244    -210.4483   -754.28996    77.011859    88.926326    81.253433    1591.3501 
   34400   -1796543.1    36409.379    37237.866   -73409.665   -346.40705    489.26822    -462.3907    77.016208    88.931348    81.258022    1590.0512 
   34500   -1796569.6    35365.789    37051.631   -74032.269    258.79816   -61.980725    -612.6967    77.019264    88.934877    81.261247    1596.6825 
   34600   -1796563.8    36776.592    36348.421   -73757.585   -982.59902   -129.30265   -831.81168    77.019515    88.935167    81.261512    1599.2822 
   34700   -1796530.5    36301.906    37150.444   -73035.526   -66.757443    459.99201   -648.76519    77.018905    88.934462    81.260868     1598.312 
   34800   -1796527.9    36241.873    37491.574   -73402.695    -238.3844    748.83199   -351.55318     77.01875    88.934283    81.260705    1601.0321 
   34900     -1796555    36169.499    36934.388   -73494.668   -488.61196   -5.3578346   -432.53652     77.01931     88.93493    81.261295     1609.803 
   35000   -1796536.7    36666.609    36743.045   -73242.131   -575.52527     449.1548   -95.466902    77.019937    88.935654    81.261957    1607.1436 
   35100   -1796512.8     37031.84    37115.472   -73701.505    642.29651    392.60555   -533.13578    77.020476    88.936276    81.262525    1594.0155 
   35200   -1796577.2     35296.68    37442.243   -74174.597   -425.81527    668.83036   -617.55723    77.019142    88.934736    81.261118     1594.867 
   35300     -1796579    37897.728    36758.084   -73597.347      -584.93    417.43323   -111.51553    77.015944    88.931043    81.257744     1595.731 
   35400     -1796522    37742.335    37747.794   -74010.317    291.09861   -331.88424    405.80096     77.01368    88.928429    81.255356     1598.495 
   35500   -1796499.5    37525.491    37893.942   -74661.777    876.63563   -6.3022551    642.71402    77.015636    88.930687    81.257419     1606.054 
   35600   -1796556.9    36473.274    36066.815    -75187.55    51.556066   -97.852831    426.78806    77.021175    88.937083    81.263263    1609.5507 
   35700   -1796526.9    35983.704    35948.256    -75077.04   -287.38321    514.37577   -64.053065    77.024602    88.941041    81.266879    1597.8363 
   35800   -1796587.3    37040.092    35689.129   -74720.106    159.99518    496.09418    154.35788    77.022039    88.938081    81.264174    1600.5922 
   35900   -1796593.6    37477.844    37116.077   -74141.921    93.986465    556.77317   -329.92754    77.014948    88.929893    81.256693    1599.8358 
   36000   -1796525.6    37116.217    38397.779   -73322.301   -752.18437   -602.18384   -94.449356    77.009193    88.923248    81.250622    1596.4004 
   36100   -1796544.6    38445.158    36554.753   -73309.939   -149.99471   -460.00989    27.878941    77.011244    88.925616    81.252785    1609.2575 
   36200   -1796526.5    37027.416    37418.809   -73987.389    57.681704   -356.56698    268.82544    77.020793    88.936643    81.262861     1605.497 
   36300   -1796566.9    35916.196    34982.703   -74775.114   -396.66761   -458.99687   -165.69118    77.029723    88.946954    81.272282    1599.3082 
   36400   -1796578.9     35851.35    34856.767   -75315.469    -224.1876   -38.234557     315.1057    77.027871    88.944815    81.270328    1597.3628 
   36500     -1796565     36894.86    36927.283   -74688.499   -5.1422608   -881.38933    742.69592    77.014548    88.929431    81.256271    1598.3164 
   36600   -1796601.6    38445.433     38186.62   -72108.536    847.37104   -397.44787    178.60887    77.001303    88.914137    81.242297    1605.5531 
   36700   -1796616.5    38397.154    37749.947   -72425.742    -216.9157   -96.385318   -40.917338    77.000492      88.9132    81.241441    1606.5742 
   36800   -1796602.1    37000.362    36326.823   -74362.658    441.07448   -268.02161    4.6130382    77.012002    88.926492    81.253585    1592.7517 
   36900   -1796607.1    35860.851    36239.343   -74548.329    -87.16574   -503.62889   -47.865204    77.023589    88.939871     81.26581    1588.3226 
   37000   -1796530.7    34787.481     36272.83   -74460.343    772.49697    234.45991    148.53155    77.026204     88.94289    81.268569    1589.6978 
   37100   -1796535.2    37756.737     36421.34   -73796.764   -361.54269   -376.08374   -252.32679        77.02    88.935726    81.262023    1599.2055 
   37200   -1796534.6    37586.691    37509.144    -72712.48   -24.229248   -328.66034     -283.729     77.01231    88.926847     81.25391    1601.1863 
   37300   -1796524.3    37783.345    38073.431    -72152.25    65.358907    404.86524   -282.29476    77.009966     88.92414    81.251436    1596.3172 
   37400   -1796576.9    37531.373    36369.979   -73497.582    406.68596   -573.25246   -419.39876    77.014442    88.929309     81.25616    1591.4176 
   37500   -1796563.8    36184.146    36393.455   -73650.263   -519.93038   -506.54505    410.98527    77.020307    88.936081    81.262347    1585.6063 
   37600   -1796544.6    37206.789    35833.862   -74406.963   -235.81927   -141.05641    78.517669    77.021344    88.937279    81.263442     1591.773 
   37700   -1796525.5    37682.057    37553.528   -72638.332   -914.21619   -453.87345   -97.911134      77.0167    88.931916    81.258541    1594.4478 
   37800   -1796572.1    37933.129    37773.194   -72988.654   -100.76261   -668.11924   -462.81336    77.012927     88.92756    81.254561    1602.6267 
   37900     -1796584    37881.853    37067.945   -73281.773    -853.8988   -694.17359   -329.96046    77.014606    88.929499    81.256333    1605.2946 
   38000   -1796540.6    36752.398    36258.287   -74847.025    171.25317    119.24361   -473.55692    77.019401    88.935035    81.261392    1600.5653 
   38100     -1796506    36323.286    35981.469   -74584.472   -351.57571    174.33495    106.00498    77.021524    88.937486    81.263631    1596.4769 
   38200   -1796571.3     36767.94    36801.188   -73938.739    503.81433   -151.94482   -129.10225     77.02039    88.936176    81.262434     1602.191 
   38300   -1796589.2    37701.589     35959.94   -73179.149    506.96155   -541.04354    772.60931    77.016404    88.931574    81.258229    1597.3607 
   38400   -1796568.7     37239.19    37053.675   -73064.525   -69.794832    144.45514    153.00173    77.012188    88.926706    81.253781    1591.1721 
   38500   -1796528.9    37440.968    37336.943   -73712.968    957.59883    340.22514    201.94109     77.01014    88.924341     81.25162    1593.8507 
   38600   -1796505.2    38100.856    37553.397   -72595.278    129.23125   -68.204584    226.82113    77.010884    88.925201    81.252406    1601.6942 
   38700   -1796519.5    37024.654     37051.69   -73484.834   -835.66216   -624.67872   -377.37241    77.018067    88.933494    81.259984    1602.4964 
   38800   -1796564.7     36063.48    35354.243    -74949.93   -488.69299   -144.14785    70.139894    77.025965    88.942614    81.268317     1601.476 
   38900   -1796548.2    35684.182    36199.619   -74846.684    494.09745   -446.35476    269.93236    77.026371    88.943083    81.268745    1593.7439 
   39000   -1796562.2    37504.404    36216.359   -73785.855   -477.19748    983.18179   -358.57015    77.017915    88.933319    81.259824    1597.1659 
   39100     -1796537    37000.011    38389.952   -72174.782   -759.50465  -0.14986487   -365.80337    77.008239    88.922146    81.249615    1605.3122 
   39200   -1796438.6    38536.776     38727.76   -71385.806   -369.09234    205.66765   -483.11744    77.006653    88.920314    81.247941    1605.1018 
   39300   -1796554.9    36715.351    36859.727   -73470.729    304.38009   -90.947672   -183.13904    77.017225    88.932522    81.259096    1608.9247 
   39400   -1796591.9    34998.862     34934.27   -74957.015    138.39807    218.35452   -99.254695    77.030311    88.947633    81.272903    1603.1912 
   39500   -1796584.1    35638.235    34632.554   -75435.178   -952.47402   -601.52493    261.29283    77.033304    88.951089     81.27606    1598.0413 
   39600   -1796514.4    35773.643    36366.695   -74119.035    86.654649   -227.09732    624.22841    77.022365    88.938457    81.264518    1592.0785 
   39700   -1796505.8    38018.106    38139.974   -72664.609    661.85843   -29.549143     770.5579    77.007298    88.921059    81.248622    1600.8234 
   39800   -1796474.1    39277.895     38836.67     -72073.3    601.99032   -172.92174    459.17781    77.002545    88.915572    81.243607    1599.5062 
   39900   -1796577.2    37442.524    36588.194   -72961.148   -34.617987   -14.355309    549.29351    77.012453    88.927013    81.254061    1598.2257 
   40000     -1796582     35216.88    35869.986   -74612.964    560.08183    75.783619    261.80815    77.026209    88.942897    81.268575    1593.2729 
   40100   -1796564.4    35243.025    35031.175   -74913.753    605.32999   -892.84006    107.86898    77.031755      88.9493    81.274426    1597.2543 
   40200   -1796545.6    35610.929    36492.523   -74189.661    81.195953    311.13934    456.49622    77.024246     88.94063    81.266504    1604.2038 
   40300   -1796553.9    37566.801    36907.649   -72838.169   -370.43102   -406.34802   -514.54252     77.01205    88.926546    81.253635    1606.4853 
   40400   -1796560.4    38239.317    37898.566   -72238.033    726.99461    324.24786    41.137838    77.005497     88.91898    81.246722    1599.5234 
   40500   -1796611.6    38256.321    37449.995   -72923.507    130.38839   -318.93749    208.08099    77.007416    88.921195    81.248746    1595.2739 
   40600   -1796608.4    37909.863    36244.882   -73859.724   -30.313754   -83.166638   -3.6802792    77.015094    88.930061    81.256847    1596.2509 
   40700   -1796553.1    35642.416     36263.69   -74479.085    505.87079    40.521068    64.923031    77.023362    88.939609    81.265571     1595.698 
   40800   -1796546.6    36367.829    35190.666   -74998.835     39.63237   -231.36656   -79.062301     77.02674    88.943509    81.269134    1602.1663 
   40900   -1796523.7    36759.561    35935.712   -73501.625   -100.61634   -355.08814   -404.88818    77.023665    88.939958     81.26589    1602.3615 
   41000   -1796529.8    37454.519    37623.592   -73248.275    162.53117   -109.30885     88.42742    77.017659    88.933023    81.259553    1600.6496 
   41100   -1796588.2    37674.938    37517.689   -73806.912    575.67769    516.56557    663.57308    77.012251    88.926779    81.253847    1593.6708 
   41200   -1796633.8    37459.895    37854.939   -74192.607    462.04471    196.86521   -34.203789    77.009422    88.923512    81.250863     1597.467 
   41300   -1796583.3    37622.026    37881.283   -73710.576    122.71129    590.82481   -299.21773     77.01014    88.924341     81.25162    1599.0299 
   41400   -1796582.7    37169.853    38019.937   -74219.854    297.48342   -50.597128    599.25689    77.015673     88.93073    81.257458    1607.7431 
   41500   -1796555.4    36635.394    36178.778   -73921.343   -2.1995883    -203.8234     163.3509    77.023283    88.939517    81.265487    1604.3151 
   41600   -1796531.1    35669.329    35886.717   -74629.757    742.47364   -121.27614    351.90377    77.026336    88.943043    81.268708    1598.3465 
   41700   -1796576.9    35976.175    36332.906    -75068.64    325.43577   -84.850879   -71.588013    77.021906    88.937927    81.264034    1600.6291 
   41800   -1796616.8    37580.174    36981.345   -74306.864     445.7948   -325.71779    322.41037    77.011959    88.926442     81.25354    1600.3533 
   41900   -1796628.4    37758.752     38044.92   -73002.616   -218.70931    192.16224    169.49745    77.002813    88.915881     81.24389    1590.7786 
   42000   -1796621.4    37743.625    38188.965   -72961.095    817.69743    -74.87503   -247.03168    77.001499    88.914364    81.242504    1594.0908 
   42100   -1796605.7    38159.171    37031.868   -73110.151   -115.34552    136.71876    125.65369    77.010156    88.924359    81.251637    1603.9839 
   42200   -1796587.6    34743.385    36761.314   -74560.642   -400.87509    429.84477    13.354105    77.024673    88.941122    81.266954    1606.0273 
   42300   -1796481.5    34670.622    34846.086   -74753.947    829.32273    124.55885   -330.11816     77.03284    88.950553    81.275571    1593.5813 
   42400   -1796576.7    35450.482     35807.22   -74396.937    247.71121    259.69614    573.51377    77.026892    88.943684    81.269294    1604.8825 
   42500   -1796620.2     37948.91    37250.498   -73324.663   -323.92846     10.11221    159.82005    77.013167    88.927836    81.254814    1601.4301 
   42600   -1796599.7    38226.612    38402.262    -72154.94   -107.37886    426.57557    319.35338    77.001693    88.914587    81.242708    1591.1827 
   42700   -1796584.8    38740.158    38457.383   -72020.959   -320.03603     386.3418    -206.8933    77.001025    88.913816    81.242004    1593.3835 
   42800   -1796540.3    36817.997    37631.932    -73387.06   -51.340612    335.64022   -131.65536    77.012372    88.926919    81.253976    1600.9042 
   42900   -1796516.5    36063.421    36856.742   -75286.357    131.27449    356.34653    467.42981     77.02696    88.943764    81.269367    1600.4038 
   43000   -1796559.2     34650.16    35222.173   -75401.354    62.815912    365.70246   -51.082793    77.034369    88.952319    81.277184    1603.5571 
   43100   -1796530.1    35877.842     35910.04    -74765.08    5.4720012   -245.12828     325.5815    77.027918    88.944869    81.270377    1594.8641 
   43200   -1796583.8    36307.837    37957.847   -73718.449    325.87279    551.76081    395.37717    77.011175    88.925536    81.252712    1591.3509 
   43300   -1796586.6    39270.079     39133.52   -71159.359   -521.16361   -98.734426    -33.76325    76.996346    88.908413    81.237067    1584.5741 
   43400   -1796587.9    40019.257     38510.28   -71715.189   -425.49756    242.45933   -225.27387    76.995699    88.907666    81.236384    1594.4312 
   43500   -1796558.9    38118.431    37614.388   -73574.407    595.34783   -68.281703    164.37715    77.011356    88.925745    81.252903    1602.4534 
   43600   -1796545.9    34237.761    36044.375   -76335.236   -917.31156    457.12334   -109.43496    77.032758    88.950458    81.275484    1602.2007 
   43700   -1796511.5    34369.969     34236.82   -76404.423   -654.92455   -578.63666   -862.78333    77.041269    88.960286    81.284464    1596.4536 
   43800   -1796564.5    35789.319    35638.532   -75195.845   -227.19273    382.39738   -157.59833    77.030281    88.947599    81.272871    1601.3985 
   43900   -1796528.1    38031.854    37352.588   -73055.606   -543.65109    -488.5161   -873.44084    77.009172    88.923223    81.250599     1590.887 
   44000   -1796630.3    39213.856    39550.189   -72074.147   -79.374799   -42.979959   -681.70648    76.993787    88.905458    81.234367    1598.0662 
   44100   -1796633.9    39304.638    39219.525   -72673.997   -314.53473   -115.69736   -177.85213    76.996284    88.908341    81.237001    1595.1666 
   44200   -1796577.3    37141.815    37738.089   -74769.626   -597.06711   -194.05667   -911.79447    77.014735    88.929647    81.256468    1596.8556 
   44300     -1796536    34961.468    35049.278   -76584.403   -208.30612   -119.40595   -378.02109    77.034804    88.952821    81.277643    1603.4076 
   44400   -1796525.5    33676.914    35281.496   -76787.376   -151.75468     751.7774   -572.95222    77.040681    88.959608    81.283844    1603.2513 
   44500   -1796550.9     37027.53    35631.388   -74816.476   -461.63236    -111.4744   -94.294858    77.027457    88.944337    81.269891    1602.7582 
   44600   -1796553.4    38174.572    38879.474   -73315.438   -250.79183   -205.54036     193.3543    77.005902    88.919447    81.247149     1591.087 
   44700   -1796604.8    39906.241    39785.894   -72265.026    499.83525   -4.0887119    119.93736    76.992504    88.903977    81.233013    1593.8315 
   44800   -1796645.4    38887.516     38661.05   -72614.359   -142.82545    155.56693   -222.32235    76.997482    88.909725    81.238265    1602.5216 
   44900   -1796585.2    37544.352    36320.503   -74616.105    399.19745    153.46525    81.437486    77.015482     88.93051    81.257257    1597.8598 
   45000     -1796516    34823.852    35521.965   -75604.824   -633.49246    33.362652    610.22704    77.032604     88.95028    81.275321    1593.3808 
   45100   -1796546.2    34688.348    34849.744   -76798.718   -349.52382   -233.70874    93.908647    77.036278    88.954523    81.279198    1604.6748 
   45200   -1796483.7    36881.338    36476.487   -74315.497    331.29606   -488.74848    -128.4948    77.023576    88.939855    81.265796    1600.7852 
   45300   -1796520.7    38649.457    37962.976   -72789.868    -257.0844   -118.08364    366.80927    77.007675    88.921495     81.24902    1596.8304 
   45400   -1796565.7    39294.482     38921.89   -72525.842    16.524925   -462.19987    158.57122    77.000728    88.913473     81.24169    1589.5969 
   45500   -1796567.7     38088.06    38449.925   -74082.782    303.30628   -444.25767    -543.3228    77.005513    88.918999    81.246739    1590.7913 
   45600   -1796574.8      37281.3    37643.985   -73848.683   -641.58118   -40.710984   -291.24778    77.015901    88.930993    81.257698    1601.5672 
   45700   -1796535.1     36408.47    35981.251   -75399.273   -1493.4035   -259.41815   -1509.0421    77.026271    88.942968     81.26864    1603.1241 
   45800   -1796570.3    35863.313    35949.715    -75514.34    186.96814   -77.526682   -371.23194    77.030009    88.947284    81.272584    1608.4521 
   45900     -1796550    35970.857    36475.911   -74479.111   -90.515999   -8.2863501    380.14739    77.024272    88.940659     81.26653    1600.4455 
   46000   -1796625.2    37511.049    36785.626   -74222.673   -1092.6231   -113.62727   -843.88656    77.012779    88.927388    81.254404    1593.3411 
   46100   -1796589.8    39319.672    39587.899   -72865.238   -500.81702   -277.22841    -343.9214    77.003085    88.916195    81.244177    1588.0532 
   46200   -1796601.7     38256.95    38035.941   -73364.088   -269.45247   -51.587238   -1025.8679    77.003934    88.917175    81.245073    1598.4136 
   46300   -1796529.8    37361.353    38526.633   -74111.981   -593.86133    481.91056    -889.9654    77.013109     88.92777    81.254753    1596.1671 
   46400   -1796518.7    35654.354    36445.326   -75071.968   -398.55297   -450.55882    -217.1871    77.026022    88.942681    81.268377    1598.6488 
   46500   -1796534.3    36686.257    34823.925   -75983.608   -538.89907   -630.52983    -120.7364    77.032743    88.950441    81.275468    1602.1465 
   46600   -1796494.3    36399.935    36024.169    -75081.73    597.16711   -426.29835    177.75956    77.028071    88.945046    81.270539    1594.5088 
   46700   -1796605.9    37370.412    36938.865   -74959.704   -279.27495    -225.2242   -208.49773    77.015793    88.930869    81.257585    1599.5922 
   46800     -1796604    39775.856    38141.566   -74148.143   -673.69319    148.56731   -84.070402    77.004392    88.917704    81.245555    1594.7557 
   46900   -1796576.9    39056.239    38592.613   -72979.799    734.47983   -451.64172    165.20282    77.001163    88.913976    81.242149    1595.9999 
   47000   -1796528.8    39425.886    37617.371   -72953.977   -245.84926   -126.32183    327.57796    77.009284    88.923353    81.250718    1600.6015 
   47100     -1796556    36825.585    35689.454   -75223.149    666.94519    222.63325    413.18482    77.025261    88.941801    81.267574    1607.8019 
   47200   -1796538.6    34360.621    35860.282   -75607.459   -257.11518   -267.65202   -62.121937    77.035605    88.953746    81.278488    1602.0114 
   47300   -1796542.1    35912.483    34668.927   -75649.807   -190.76585   -157.63121    818.77713    77.030149    88.947445    81.272731    1598.1973 
   47400   -1796569.9    37927.871     37044.86   -72909.883    320.54628   -403.19323   -192.07769     77.01385    88.928625    81.255535    1601.1389 
   47500   -1796616.5    37919.976    38250.298   -73312.153    621.05825    530.27512     480.4467    77.001396    88.914244    81.242394     1606.048 
   47600   -1796588.9    37153.162     39172.38   -72770.855   -218.73373    590.01969    380.04777    77.001926    88.914856    81.242954    1600.4052 
   47700   -1796583.1    36877.126    37081.887   -73456.748    34.630174     293.9809    450.19757    77.014891    88.929827    81.256633    1596.5997 
   47800   -1796584.4    35145.279    35686.523   -74830.937    682.76969    50.419932    973.31446    77.027432    88.944308    81.269865    1598.0733 
   47900   -1796570.8    34642.312    36117.722   -74486.024    81.879613     441.8412    172.12716    77.029036     88.94616    81.271557    1607.4759 
   48000   -1796523.2    35632.212    37530.904   -73802.798    40.441758    268.60438    356.45877    77.022378    88.938473    81.264533    1607.0766 
   48100   -1796529.8    38029.259    37528.046   -73464.527    260.57384    246.47093    950.63002    77.013934    88.928722    81.255623    1601.9203 
   48200   -1796572.8    37005.799    37610.019   -73418.041    332.37921    297.53091     169.6437    77.011535    88.925952    81.253092    1598.7554 
   48300   -1796567.5     37397.73    37414.891   -73764.819    322.20634     593.6844    464.51693     77.01446    88.929329    81.256178    1596.6097 
   48400   -1796543.2    37773.598    37393.301    -74693.56    49.117121    136.48174    305.26838    77.018697    88.934222    81.260648     1596.227 
   48500   -1796513.5    37307.952    37142.242   -74887.374    133.91922    212.86096     287.5537    77.021696    88.937685    81.263812    1596.8278 
   48600     -1796515    36977.444    37541.545   -74378.978    109.80577   -257.72351    884.05636    77.021073    88.936966    81.263156    1605.1209 
   48700   -1796457.8    37754.381    37507.199    -73731.03   -432.35145   -465.82223   -398.29834    77.018628    88.934142    81.260575    1606.0793 
   48800   -1796537.9    37675.234    36863.386   -74390.459   -605.73045    283.72122    27.798072    77.018262     88.93372     81.26019    1607.1862 
   48900   -1796556.2    37009.016    37646.429   -74781.169   -378.47629    7.9184063   -228.72365    77.018104    88.933537    81.260022    1598.2661 
   49000   -1796595.3    37371.566    36865.065   -74563.336   -413.18342   -212.58277   -270.68861    77.017517    88.932859    81.259404    1600.9782 
   49100   -1796527.9    35840.846    36890.409   -74550.963   -584.53553    74.360136    305.43211    77.015589    88.930633     81.25737    1592.3678 
   49200   -1796522.6    37645.957    37733.477   -74390.303    289.59102    421.90103   -906.91383    77.013144     88.92781     81.25479    1596.6943 
   49300   -1796539.3     37506.06    37755.121   -73770.616    -544.6538    370.32004   -305.39667    77.014105    88.928919    81.255804    1606.1725 
   49400   -1796533.6    36714.133    37269.797   -74334.387   -352.27035     106.2053   -426.19593    77.019857    88.935561    81.261872    1607.5447 
   49500   -1796517.3    36317.535    36909.934   -74540.782   -960.67964    427.77004   -636.46333    77.025205    88.941737    81.267515    1594.0016 
   49600   -1796611.7    36219.993     35445.83   -74951.381    329.40719   -214.42861   -402.61532    77.023463    88.939725    81.265677    1598.7028 
   49700   -1796566.9    37549.174    37498.273   -72585.904    8.8339234   -80.149281   -93.069299    77.012958    88.927595    81.254593    1594.3462 
   49800   -1796543.9    38353.193    38167.564   -72776.177   -443.99604    308.25096    108.87703    77.005796    88.919325    81.247037    1599.9909 
   49900     -1796569     37821.56    38137.547   -72942.261     510.3602    105.54504    489.94564    77.009636    88.923759    81.251088    1611.9633 
   50000   -1796507.3    36262.818     36446.29   -73665.248   -61.894054   -100.02637   -108.85231    77.023208     88.93943    81.265408    1599.7087 
[...]
   87800   -1796548.6    35010.403    35866.988   -74953.349    148.42592    118.63676     299.2555    77.032961    88.950692    81.275698    1596.7756 
   87900   -1796528.8    34741.605    35662.605   -74812.701    -578.9018    253.51479    102.49968    77.032961    88.950692    81.275698    1597.8451 
   88000     -1796478    34854.988    35703.629   -74070.612   -724.65241    838.48982   -20.248158    77.032961    88.950692    81.275698    1602.0978 
   88100   -1796543.3    35113.124    35878.539   -75810.771     124.9865    818.29359    482.06143    77.032961    88.950692    81.275698    1608.6847 
   88200   -1796608.5    34915.667     33977.39   -75666.524    -313.1139   -77.339243   -389.76466    77.032961    88.950692    81.275698    1595.5129 
   88300   -1796564.6    35083.535    35524.107   -74687.996   -80.262401    153.92194    13.198726    77.032961    88.950692    81.275698    1605.3453 
   88400   -1796498.3    35598.489    35653.706   -74570.375    679.21982   -384.12822   -170.78529    77.032961    88.950692    81.275698    1605.0974 
   88500   -1796558.2    34936.118    34467.254   -74838.029   -602.61543   -116.52035   -573.98032    77.032961    88.950692    81.275698    1595.5878 
   88600   -1796581.5    34646.442    34950.177   -74646.177   -765.96058   -2.9575517    43.556484    77.032961    88.950692    81.275698    1596.0945 
   88700   -1796534.2     33967.22    35576.628   -75353.072    1082.1926    241.42747    117.35523    77.032961    88.950692    81.275698    1598.5785 
   88800   -1796539.9    34478.341    35597.996   -74486.481    56.333143   -117.39854   -119.71141    77.032961    88.950692    81.275698    1598.7735 
   88900   -1796509.5    35701.253    35552.154   -75180.038   -195.16348   -68.629343    907.19001    77.032961    88.950692    81.275698    1598.3057 
   89000   -1796580.7    34926.409    35488.549   -75502.838   -598.65116    592.42532   -110.40021    77.032961    88.950692    81.275698    1601.1178 
   89100   -1796461.4     34002.15    36481.991   -75272.294     631.4895    697.94136    716.40923    77.032961    88.950692    81.275698    1602.4202 
   89200   -1796534.7    35568.272    36634.731   -75432.652   -273.92317    772.73525    -917.3822    77.032961    88.950692    81.275698    1608.3068 
   89300   -1796548.4    34681.973    36185.634    -75341.45   -1394.3186    103.49339   -627.91033    77.032961    88.950692    81.275698    1607.0832 
   89400   -1796495.2    35130.923    36177.689   -74849.916    45.231309    429.68414   -518.38741    77.032961    88.950692    81.275698    1592.0778 
   89500   -1796560.9    35228.065    35254.196   -75669.384    579.82334   -101.70679    225.26065    77.032961    88.950692    81.275698    1603.2883 
   89600   -1796607.5    34752.404    35286.368   -75513.387   -512.26358    886.66017    237.66328    77.032961    88.950692    81.275698     1602.191 
   89700   -1796629.2     34808.59    34906.316   -75899.945   -145.47255   -181.83884    434.42236    77.032961    88.950692    81.275698    1591.0361 
   89800   -1796604.6    34480.114    34586.527   -75619.693    983.92623   -154.89552    587.84354    77.032961    88.950692    81.275698    1591.2962 
   89900   -1796520.3    35606.584    35814.767   -75233.872    366.63372   -419.35512    1117.9814    77.032961    88.950692    81.275698    1608.4544 
   90000   -1796539.8    35072.783    36116.155    -75270.95   -573.04659   -140.92003    200.13102    77.032961    88.950692    81.275698    1612.7753 
   90100   -1796610.8    35006.209    34968.204   -75103.184   -57.691297   -336.66026    371.77408    77.032961    88.950692    81.275698    1604.3581 
   90200   -1796609.1    35062.626    34971.748   -75431.681    106.18508   -376.44408    123.90701    77.032961    88.950692    81.275698    1603.5923 
   90300   -1796549.7    33800.975     35425.93   -75499.669   -200.66858   -44.281323   -47.181391    77.032961    88.950692    81.275698    1596.5363 
   90400   -1796587.7    34974.768    35180.328   -75828.025    51.633182   -117.75523    291.63824    77.032961    88.950692    81.275698    1596.8548 
   90500     -1796574    35452.506    34458.955   -75419.056     53.10453   -693.15334    196.78337    77.032961    88.950692    81.275698    1598.6769 
   90600   -1796577.6    34971.778    34624.368   -75241.587     594.6581   -349.42553    597.61435    77.032961    88.950692    81.275698    1603.9673 
   90700   -1796505.5    33833.774    36291.777   -74606.785    83.996422    52.186501    20.558699    77.032961    88.950692    81.275698    1600.7262 
   90800   -1796572.9    36069.787    35155.372   -74850.396    296.44538    180.93101   -34.811117    77.032961    88.950692    81.275698    1607.0096 
   90900   -1796599.8    34494.459    34848.885     -75226.2   -265.99217   -264.86294   -52.896793    77.032961    88.950692    81.275698    1603.9588 
   91000   -1796572.5    34864.694    35705.005   -74692.044     375.6939   -58.498787   -66.555583    77.032961    88.950692    81.275698    1603.6175 
   91100   -1796540.3    34690.355    35375.948   -74716.173    145.03808    9.8898274    206.97992    77.032961    88.950692    81.275698    1601.9146 
   91200   -1796552.3    35999.305    34333.709     -75536.7    126.11218   -310.62594    119.41511    77.032961    88.950692    81.275698    1608.5139 
   91300   -1796529.5    34908.546    35203.409   -75411.193    188.28584   -558.84442     37.52555    77.032961    88.950692    81.275698    1593.9347 
   91400   -1796570.5    33861.854    35521.178   -75568.563   -60.846413    27.675837   -626.21472    77.032961    88.950692    81.275698    1594.4523 
   91500     -1796461    35927.643    34451.295    -75597.74    519.63994   -482.08984   -140.42376    77.032961    88.950692    81.275698    1597.3183 
   91600   -1796452.8    36080.067      35526.8   -74934.539    96.481213   -328.20048    -395.2827    77.032961    88.950692    81.275698    1602.7241 
   91700     -1796563    34520.048    34674.076   -76260.343   -186.15649   -398.02108    111.65637    77.032961    88.950692    81.275698    1589.9988 
   91800   -1796636.4     35038.71    34434.888   -76288.713    616.42048    112.29951    407.62108    77.032961    88.950692    81.275698    1599.3685 
   91900   -1796614.5    34285.241    34158.433   -76543.457     8.076114   -39.770713   -869.19819    77.032961    88.950692    81.275698    1601.0295 
   92000   -1796548.6    34361.355    35401.896   -76012.248    506.05989    457.32285   -78.059268    77.032961    88.950692    81.275698    1599.5322 
   92100   -1796597.4    34882.533    35235.733    -75758.67   -354.54643    8.9227977    471.46658    77.032961    88.950692    81.275698    1605.3917 
   92200   -1796499.3    35599.239    35168.516   -74547.242     14.58967    409.10329    259.74372    77.032961    88.950692    81.275698    1598.4458 
   92300   -1796548.2    34829.961    35566.264     -76162.4   -343.00263   -130.93433   -86.812021    77.032961    88.950692    81.275698    1594.2577 
   92400   -1796592.6    33685.785    35462.504   -76198.676    133.90434    313.73083    -18.84918    77.032961    88.950692    81.275698    1601.2702 
   92500   -1796478.4    36390.234    34479.866   -75198.134   -211.98088   -741.75974     104.3127    77.032961    88.950692    81.275698    1603.9256 
   92600     -1796550    35329.739    35071.136    -75757.71   -595.24534   -164.51189   -683.51111    77.032961    88.950692    81.275698    1597.4134 
   92700   -1796537.9    35231.445    35143.402   -74825.644    546.97027   -206.80762   -74.786587    77.032961    88.950692    81.275698    1611.7481 
   92800     -1796516    35010.189    35085.667   -75079.841    558.86197   -109.52015    304.20757    77.032961    88.950692    81.275698    1596.0165 
   92900     -1796528    35211.927    34996.348   -74851.879   0.31518589    77.319956     9.347674    77.032961    88.950692    81.275698     1597.497 
   93000   -1796564.4    35068.701    34906.941   -76098.308   -558.62182    -119.9241   -270.73049    77.032961    88.950692    81.275698    1593.5964 
   93100   -1796556.2    34926.224     35776.36    -75708.36    277.09841    545.76945   -171.10175    77.032961    88.950692    81.275698    1600.7067 
   93200   -1796576.4    34884.411    35455.742    -75415.64   -573.77586    823.37806   -185.53606    77.032961    88.950692    81.275698    1597.1771 
   93300   -1796623.9    34432.705    34039.616   -75645.273    -731.5276   -103.24629    -245.8025    77.032961    88.950692    81.275698    1593.6412 
   93400     -1796581    34922.727    34045.771   -75082.383   -914.75966   -352.99764   -401.34161    77.032961    88.950692    81.275698    1604.7795 
   93500   -1796546.5    34054.375    34778.702   -75421.228   -113.06956    92.200319    841.14238    77.032961    88.950692    81.275698    1593.0367 
   93600   -1796469.2    35633.645     35069.74   -74769.332   -7.4298046    1.9543428   -41.031375    77.032961    88.950692    81.275698    1594.2686 
   93700   -1796516.4    35317.622    36109.271   -74173.208   -772.64112    363.01946   -354.24564    77.032961    88.950692    81.275698    1599.1997 
   93800   -1796547.7     35346.86    34706.108   -74736.823   -261.65384   -435.21531   -440.18042    77.032961    88.950692    81.275698    1596.5234 
   93900   -1796559.6    35562.248    35138.521   -74357.959    -48.82842   -830.69704   -65.662597    77.032961    88.950692    81.275698    1596.3975 
   94000   -1796578.9    35730.118     33609.11   -76075.308    444.09123   -461.93153   -28.074253    77.032961    88.950692    81.275698    1597.4979 
   94100   -1796471.4    35549.456    35348.078   -75758.071   -75.181082   -543.09213      116.483    77.032961    88.950692    81.275698    1592.6428 
   94200   -1796490.7    34957.906    35154.674   -76279.762   -306.84306   -591.77376   -297.94362    77.032961    88.950692    81.275698    1592.1433 
   94300   -1796476.2    35962.444    34818.888   -75495.461   -205.35149   -806.18375   -552.99979    77.032961    88.950692    81.275698    1603.0282 
   94400     -1796536    36289.455    33700.725   -75724.586   -436.39347   -1336.8997   -74.883989    77.032961    88.950692    81.275698    1602.3282 
   94500   -1796583.9    34814.403    34986.923   -75753.532   -80.792115   -492.85882    351.65071    77.032961    88.950692    81.275698    1601.5673 
   94600   -1796504.6     35820.89    34547.761   -75702.172   -549.12068   -527.74117   -434.91575    77.032961    88.950692    81.275698    1593.2064 
   94700   -1796581.1    35644.595    34737.388   -75530.356   -109.61142   -237.36223    130.26632    77.032961    88.950692    81.275698    1598.8533 
   94800   -1796545.5    36804.479    34414.284   -74782.851     25.72749   -1023.3489   -40.175501    77.032961    88.950692    81.275698    1596.7892 
   94900   -1796501.9    35239.861    34567.916   -74445.074    280.30523   -852.19661    6.9515407    77.032961    88.950692    81.275698     1598.034 
   95000   -1796597.8    35325.819     33479.24   -75188.516    15.651604   -748.70778    341.01857    77.032961    88.950692    81.275698    1597.9645 
   95100   -1796581.6    34915.876    34384.368   -74421.566     142.7356     210.0656    175.39101    77.032961    88.950692    81.275698    1606.4735 
   95200   -1796587.2    35136.539    33950.553   -74912.442    301.64283     122.1086   -268.57474    77.032961    88.950692    81.275698    1597.3612 
   95300   -1796539.5    35558.559    34427.806   -74867.784   -165.96137    354.53485   -679.23406    77.032961    88.950692    81.275698    1601.0039 
   95400   -1796578.1    34955.374    35055.472   -74757.199    187.19734    -478.1094   -824.72897    77.032961    88.950692    81.275698    1599.8508 
   95500   -1796533.1    35796.428    34714.545   -75269.475   -421.24395   -28.454196   -248.86825    77.032961    88.950692    81.275698    1600.3525 
   95600   -1796557.5    35435.506    34996.821   -75567.893   -651.54492    103.09999   -266.97828    77.032961    88.950692    81.275698    1602.4479 
   95700     -1796565    34830.156    34555.735   -75525.645   -122.06811    270.96647   -105.12848    77.032961    88.950692    81.275698    1599.3369 
   95800   -1796597.5    34686.701    34780.885   -76096.778    51.712626   -204.32598     375.2384    77.032961    88.950692    81.275698    1596.9089 
   95900   -1796519.5    35351.819    35549.026   -75849.628    -159.5244    449.70659   -314.57837    77.032961    88.950692    81.275698    1607.4592 
   96000   -1796598.6    35485.331    35140.767   -76655.084   -37.161477   -277.76039    79.297605    77.032961    88.950692    81.275698    1586.0235 
   96100   -1796562.5    35697.683    35497.923   -76580.359    116.83565   -80.481181    51.115757    77.032961    88.950692    81.275698    1606.3167 
   96200   -1796609.1    34312.361    35026.045   -76729.291    44.383925   -147.78219   -73.404107    77.032961    88.950692    81.275698    1593.3884 
   96300   -1796550.7    35251.749    35300.358   -76182.469   -81.503079    213.36349    243.29774    77.032961    88.950692    81.275698    1596.1974 
   96400   -1796596.5    34925.819    35898.628   -75932.428    92.749445    401.96963   -234.06351    77.032961    88.950692    81.275698    1613.4149 
   96500   -1796539.6    34998.409    35743.752   -75390.561   -59.152517    320.91344   -484.14749    77.032961    88.950692    81.275698    1602.3634 
   96600   -1796493.7    35144.185    35126.798   -75522.839   -514.62706   -19.011745   -611.87922    77.032961    88.950692    81.275698    1590.7244 
   96700   -1796570.8    34946.374    34509.818   -75505.683    781.51605   -611.48992    542.31746    77.032961    88.950692    81.275698    1596.9568 
   96800   -1796557.3    34220.727    35528.024   -75152.581    240.71454    605.76819    159.63691    77.032961    88.950692    81.275698     1596.481 
   96900   -1796530.3    35742.376    34553.135   -75466.983   -721.40373   -211.73174   -546.64529    77.032961    88.950692    81.275698    1599.5991 
   97000   -1796521.2    35598.966    35574.709   -74593.974    250.29217   -153.06274    222.57858    77.032961    88.950692    81.275698    1598.8075 
   97100   -1796549.2    35877.183     34727.88   -76477.526    31.761113   -923.14814   -258.41949    77.032961    88.950692    81.275698    1588.6749 
   97200   -1796449.1    35331.984    35266.727   -75158.703    248.49818   -319.03323   -90.403755    77.032961    88.950692    81.275698    1593.9371 
   97300   -1796483.8    36303.864    35742.015   -75230.628    435.12632   -280.87175    733.55913    77.032961    88.950692    81.275698    1612.9957 
   97400   -1796546.4    35729.029    35186.859   -76373.176   -423.43417   -162.29881   -29.107359    77.032961    88.950692    81.275698    1600.6435 
   97500   -1796515.6    35571.989     34551.98   -75071.978    531.90641    119.82279     103.2133    77.032961    88.950692    81.275698    1594.8825 
   97600   -1796580.1    34362.264    35035.978   -75531.915    59.508067   -261.74033    143.20045    77.032961    88.950692    81.275698    1602.4012 
   97700   -1796573.9    34872.075    35100.906    -75421.94    345.40522   -415.79227   -520.06599    77.032961    88.950692    81.275698    1597.5444 
   97800     -1796527    35501.939     35154.99     -75384.9   -254.07943    259.71347   -5.7901804    77.032961    88.950692    81.275698    1602.1073 
   97900   -1796662.1    34835.809    33867.988    -76377.14   -690.63803   -16.316927   -88.772453    77.032961    88.950692    81.275698    1602.9984 
   98000   -1796560.9    35376.945    35451.903   -75097.169   -6.1540374    386.63876   -107.17498    77.032961    88.950692    81.275698    1595.1724 
   98100   -1796526.7    34974.421    35696.232   -74621.476    372.02023    56.326437   -80.952813    77.032961    88.950692    81.275698    1603.9816 
   98200   -1796604.9    33905.484    34086.867   -76014.969   -901.57994     152.2104   -57.579698    77.032961    88.950692    81.275698    1588.0513 
   98300   -1796592.7    34142.472    34467.168   -76101.003   -135.49556    941.00358    352.87339    77.032961    88.950692    81.275698     1598.164 
   98400   -1796573.1    34576.455    35210.644    -75422.29    916.22577    597.21377   -23.758621    77.032961    88.950692    81.275698    1599.5182 
   98500   -1796533.7    34680.993    35255.658   -75805.182    81.745816    65.197319    671.40865    77.032961    88.950692    81.275698    1593.6859 
   98600   -1796631.4    34434.662    35325.393   -74309.213   -345.36906    793.07605    -81.97642    77.032961    88.950692    81.275698    1613.0802 
   98700   -1796468.2     34862.55    35540.789   -74601.946    886.54014    1440.5893   -306.63761    77.032961    88.950692    81.275698    1597.2792 
   98800   -1796478.3    35126.629    35909.049    -74593.47    669.08505    661.43175    218.90089    77.032961    88.950692    81.275698    1603.6838 
   98900   -1796549.2    35023.147    34278.334    -75254.81   -362.42522    696.45595   -131.59226    77.032961    88.950692    81.275698    1596.6936 
   99000   -1796502.1    34276.545    35918.792   -75358.845   -324.74855    628.48871   -20.412064    77.032961    88.950692    81.275698    1599.9023 
   99100   -1796523.7     35398.99    36089.883   -74531.119    929.13881    179.29506     404.5947    77.032961    88.950692    81.275698    1611.2274 
   99200   -1796591.2    34688.375    34218.371   -75434.422    537.86815   -232.41233    137.74549    77.032961    88.950692    81.275698    1611.2282 
   99300   -1796601.9    34539.304    35085.747   -74650.131   -772.48503    518.62445   -285.68264    77.032961    88.950692    81.275698    1595.8647 
   99400   -1796599.7    33872.678    34092.945   -75184.569    436.29219   -332.98185    523.85518    77.032961    88.950692    81.275698    1591.1107 
   99500   -1796503.9    35742.752    35398.138   -74657.624    622.52721   -1051.0382    793.05351    77.032961    88.950692    81.275698    1596.9779 
   99600   -1796552.4    35105.413    35010.529   -74747.608    401.47548   -548.97954    75.197072    77.032961    88.950692    81.275698    1598.2846 
   99700   -1796535.2    35161.549    34972.958   -75598.194   -318.28541   -198.08069   -121.42491    77.032961    88.950692    81.275698    1591.6771 
   99800   -1796546.1    35351.655    34734.346    -75763.08    120.38448   -1001.4124    247.83545    77.032961    88.950692    81.275698     1595.408 
   99900   -1796513.1    35219.961     34753.78   -74897.284    247.24113   -265.10559    408.93396    77.032961    88.950692    81.275698    1592.7359 
  100000   -1796432.4    35218.125    35801.504   -75106.279   -590.73376   -71.079089    24.813538    77.032961    88.950692    81.275698    1610.3256 
  100083   -1796557.2    35082.333    34934.562   -75378.183    83.382614   -463.78136    107.07211    77.032961    88.950692    81.275698     1604.419 
Loop time of 5877.61 on 15 procs for 50000 steps with 58365 atoms

Pair  time (%) = 4322.66 (73.5445)
Kspce time (%) = 1350.71 (22.9807)
Neigh time (%) = 82.873 (1.40998)
Comm  time (%) = 88.5189 (1.50604)
Outpt time (%) = 0.612213 (0.010416)
Other time (%) = 32.2335 (0.548412)

Nlocal:    3891 ave 3925 max 3831 min
Histogram: 3 0 0 0 0 1 4 1 2 4
Nghost:    18553.3 ave 18676 max 18430 min
Histogram: 4 2 0 0 0 0 3 3 0 3
Neighs:    1.49517e+06 ave 1.53667e+06 max 1.44976e+06 min
Histogram: 1 1 2 2 1 2 2 1 1 2

Total # of neighbors = 22427555
Ave neighs/atom = 384.264
Neighbor list builds = 1346
Dangerous builds = 0
unfix   2


write_data NPT_relaxed_1600.data
PPPM initialization ...
  G vector (1/distance) = 0.308944
  grid = 72 80 75
  stencil order = 5
  estimated absolute RMS force accuracy = 0.00178406
  estimated relative force accuracy = 0.000123896
  using double precision FFTs
  3d grid and FFT values/proc = 58144 28800

