LAMMPS (28 Jun 2014)
Running on 21 partitions of processors
Step MaxReplicaForce MaxAtomForce GradV0 GradV1 GradVc EBF EBR RDT RD1 PE1 RD2 PE2 ... RDN PEN
0     79.15001    17.659055    79.149409     79.15001     79.15001 0.0016713908            0        2.628            0   -14778.349         0.05   -14779.469          0.1   -14780.341         0.15   -14780.964          0.2   -14781.343         0.25   -14781.498          0.3    -14781.47         0.35   -14781.324          0.4   -14781.138         0.45   -14780.988          0.5   -14780.931         0.55   -14780.988          0.6   -14781.138         0.65   -14781.325          0.7   -14781.471         0.75   -14781.498          0.8   -14781.342         0.85   -14780.963          0.9    -14780.34         0.95   -14779.468            1   -14778.347 
100   0.42772591   0.18758612   0.24741049   0.24738381    0.2697843   0.43389916   0.43399734     2.928843            0   -14850.765  0.033345838   -14850.754  0.062614239   -14850.732   0.10329224   -14850.688   0.14765925   -14850.637   0.19567776   -14850.583   0.24939318   -14850.524   0.30767008   -14850.462   0.36939599     -14850.4   0.43392074    -14850.35   0.50007592   -14850.331   0.56623124    -14850.35   0.63075411   -14850.401     0.692473   -14850.462   0.75073207   -14850.525   0.80442073   -14850.583    0.8524187   -14850.637   0.89675396   -14850.688   0.93738462   -14850.732   0.96667231   -14850.754            1   -14850.765 
200  0.091597527  0.020481616   0.08500912  0.085021234  0.081691129   0.42950995   0.42952849     3.000567            0    -14850.78  0.046402461   -14850.764  0.093026454   -14850.719    0.1402772   -14850.664   0.18850422    -14850.61     0.237892   -14850.556   0.28847762   -14850.502   0.34019943   -14850.448   0.39289534   -14850.399    0.4462941   -14850.364   0.50005068   -14850.351   0.55380611   -14850.364   0.60720112   -14850.399   0.65989068   -14850.448     0.711604   -14850.502   0.76217939   -14850.556   0.81155542    -14850.61   0.85976918   -14850.664   0.90700535   -14850.719   0.95361378   -14850.764            1    -14850.78 
300  0.037422505 0.0030668111  0.037422505  0.037375661  0.031114174   0.42778419   0.42786811    3.0423115            0   -14850.782   0.04974818   -14850.766  0.099392367   -14850.717   0.14902432   -14850.658   0.19873243   -14850.602   0.24857674   -14850.549   0.29858604   -14850.495   0.34876515   -14850.443   0.39909432   -14850.397   0.44953569   -14850.365   0.50003479   -14850.354   0.55053318   -14850.365   0.60097202   -14850.397   0.65129693   -14850.443   0.70147027   -14850.495   0.75147264   -14850.549   0.80130867   -14850.603   0.85100741   -14850.658   0.90062931   -14850.717   0.95026281   -14850.766            1   -14850.782 
400  0.015147702 0.0020132377  0.015121078  0.015147702 0.0089324274   0.42842439   0.42847213    3.0673704            0   -14850.783  0.050320281   -14850.767    0.1005294   -14850.719    0.1506414   -14850.659    0.2006745   -14850.603   0.25064698   -14850.548   0.30057294   -14850.495   0.35046421   -14850.443   0.40033065   -14850.397   0.45018076   -14850.365   0.50002226   -14850.355   0.54986325   -14850.365   0.59971175   -14850.397   0.64957552   -14850.443   0.69946318   -14850.495   0.74938472   -14850.548   0.79935195   -14850.603   0.84937914   -14850.659   0.89948465   -14850.719   0.94968685   -14850.767            1   -14850.783 
500 0.0074095482 0.0012990104 0.0073922251 0.0074095482  0.003618293   0.42855249   0.42862842    3.0797615            0   -14850.783    0.0502524   -14850.769   0.10043375    -14850.72   0.15054716   -14850.661   0.20059691   -14850.604   0.25059108   -14850.549   0.30053717   -14850.495    0.3504433   -14850.444   0.40031829   -14850.397    0.4501717   -14850.365    0.5000139   -14850.355   0.54985575   -14850.365   0.59970813   -14850.397   0.64958143   -14850.444   0.69948525   -14850.496   0.74942853   -14850.549   0.79941933   -14850.604   0.84946541   -14850.661   0.89957477    -14850.72   0.94975191   -14850.769            1   -14850.783 
600  0.022219111 0.0017497391  0.011091147  0.011291217  0.011415122   0.42860588   0.42864225    3.0863065            0   -14850.783  0.050143987   -14850.769   0.10024703   -14850.722   0.15031576   -14850.662   0.20034617   -14850.605   0.25034464    -14850.55   0.30031466   -14850.496   0.35026057   -14850.444   0.40018769   -14850.397   0.45010159   -14850.365   0.50000867   -14850.355    0.5499155   -14850.365   0.59982881   -14850.397   0.64975489   -14850.445   0.69969936   -14850.496   0.74966777    -14850.55   0.79966407   -14850.605   0.84969231   -14850.662   0.89975834   -14850.722   0.94985882   -14850.769            1   -14850.783 
700 0.0014947916 0.00034587978 0.0014947916 0.0014944254 0.00017031924   0.42866614   0.42869556    3.0899062            0   -14850.783   0.05007034    -14850.77   0.10012196   -14850.722   0.15015546   -14850.663   0.20017125   -14850.606   0.25017104   -14850.551   0.30015653   -14850.497   0.35012992   -14850.445   0.40009379   -14850.398   0.45005108   -14850.365   0.50000492   -14850.355   0.54995864   -14850.365   0.59991558   -14850.398   0.64987887   -14850.445   0.69985145   -14850.497   0.74983595   -14850.551   0.79983454   -14850.606   0.84984902   -14850.663   0.89988107   -14850.722    0.9499312    -14850.77            1   -14850.783 
727 0.00099833209 0.00019188577 0.00099833209 0.00099691216 9.9597857e-05    0.4285908   0.42864263    3.0911082            0   -14850.783  0.050044105    -14850.77   0.10007695   -14850.722   0.15009807   -14850.663   0.20010799   -14850.606   0.25010762   -14850.551   0.30009832   -14850.497   0.35008158   -14850.445   0.40005898   -14850.398   0.45003232   -14850.365   0.50000353   -14850.355   0.54997463   -14850.366    0.5999477   -14850.398   0.64992466   -14850.445   0.69990734   -14850.497   0.74989732   -14850.551   0.79989612   -14850.606    0.8499051   -14850.663   0.89992521   -14850.722   0.94995698    -14850.77            1   -14850.783 
Climbing replica = 11
Step MaxReplicaForce MaxAtomForce GradV0 GradV1 GradVc EBF EBR RDT RD1 PE1 RD2 PE2 ... RDN PEN
727 0.00099833209 0.00019188577 0.00099833209 0.00099691216 9.9597857e-05    0.4285908   0.42864263    3.0911082            0   -14850.783  0.050044105    -14850.77   0.10007695   -14850.722   0.15009807   -14850.663   0.20010799   -14850.606   0.25010762   -14850.551   0.30009832   -14850.497   0.35008158   -14850.445   0.40005898   -14850.398   0.45003232   -14850.365   0.50000353   -14850.355   0.54997463   -14850.366    0.5999477   -14850.398   0.64992466   -14850.445   0.69990734   -14850.497   0.74989732   -14850.551   0.79989612   -14850.606    0.8499051   -14850.663   0.89992521   -14850.722   0.94995698    -14850.77            1   -14850.783 
728 0.00099833209 0.00019188577 0.00099833209 0.00099691216 9.9597857e-05    0.4285908   0.42864263    3.0911082            0   -14850.783  0.050044105    -14850.77   0.10007695   -14850.722   0.15009807   -14850.663   0.20010799   -14850.606   0.25010762   -14850.551   0.30009832   -14850.497   0.35008158   -14850.445   0.40005898   -14850.398   0.45003232   -14850.365   0.50000353   -14850.355   0.54997463   -14850.366    0.5999477   -14850.398   0.64992466   -14850.445   0.69990734   -14850.497   0.74989732   -14850.551   0.79989612   -14850.606    0.8499051   -14850.663   0.89992521   -14850.722   0.94995698    -14850.77            1   -14850.783 
