479
Atoms. Timestep: 0
1 1.314 19.0766 3.398
1 5.609 16.5976 3.398
1 9.903 14.1176 3.398
1 14.198 11.6386 3.398
1 1.314 4.2 3.398
1 5.609 1.721 3.398
1 9.903 19.0766 3.398
1 14.198 16.5976 3.398
1 1.314 9.159 3.398
1 5.609 6.68 3.398
1 9.903 4.2 3.398
1 14.198 1.721 3.398
1 1.314 14.118 3.398
1 5.609 11.639 3.398
1 9.903 9.159 3.398
1 14.198 6.68 3.398
1 0 1.517 3.398
1 4.295 18.8736 3.398
1 8.589 16.3946 3.398
1 12.884 13.9146 3.398
1 0 6.476 3.398
1 4.295 3.997 3.398
1 8.589 1.517 3.398
1 12.884 18.8736 3.398
1 0 11.435 3.398
1 4.295 8.956 3.398
1 8.589 6.476 3.398
1 12.884 3.997 3.398
1 0 16.394 3.398
1 4.295 13.915 3.398
1 8.589 11.435 3.398
1 12.884 8.956 3.398
1 2.98 1.721 3.398
1 7.275 19.0766 3.398
1 11.569 16.5976 3.398
1 15.864 14.1176 3.398
1 2.98 6.68 3.398
1 7.275 4.2 3.398
1 11.569 1.721 3.398
1 15.864 19.0766 3.398
1 2.98 11.639 3.398
1 7.275 9.159 3.398
1 11.569 6.68 3.398
1 15.864 4.2 3.398
1 2.98 16.597 3.398
1 7.275 14.118 3.398
1 11.569 11.639 3.398
1 15.864 9.159 3.398
1 2.98 18.1146 10.195
1 7.275 15.6356 10.195
1 11.569 13.1556 10.195
1 15.864 10.6766 10.195
1 2.98 3.238 10.195
1 7.275 0.759 10.195
1 11.569 18.1146 10.195
1 15.864 15.6356 10.195
1 2.98 8.197 10.195
1 7.275 5.718 10.195
1 11.569 3.238 10.195
1 15.864 0.759 10.195
1 2.98 13.156 10.195
1 7.275 10.677 10.195
1 11.569 8.197 10.195
1 15.864 5.718 10.195
1 0 3.441 10.195
1 4.295 0.962 10.195
1 8.589 18.3186 10.195
1 12.884 15.8386 10.195
1 0 8.4 10.195
1 4.295 5.921 10.195
1 8.589 3.441 10.195
1 12.884 0.962 10.195
1 0 13.359 10.195
1 4.295 10.88 10.195
1 8.589 8.4 10.195
1 12.884 5.921 10.195
1 0 18.318 10.195
1 4.295 15.839 10.195
1 8.589 13.359 10.195
1 12.884 10.88 10.195
1 1.314 0.759 10.195
1 5.609 18.1146 10.195
1 9.903 15.6356 10.195
1 14.198 13.1556 10.195
1 1.314 5.718 10.195
1 5.609 3.238 10.195
1 9.903 0.759 10.195
1 14.198 18.1146 10.195
1 1.314 10.677 10.195
1 5.609 8.197 10.195
1 9.903 5.718 10.195
1 14.198 3.238 10.195
1 1.314 15.635 10.195
1 5.609 13.156 10.195
1 9.903 10.677 10.195
1 14.198 8.197 10.195
1 4.177 19.0766 7.929
1 8.472 16.5976 7.929
1 12.766 14.1176 7.929
1 17.061 11.6386 7.929
1 4.177 4.2 7.929
1 8.472 1.721 7.929
1 12.766 19.0766 7.929
1 17.061 16.5976 7.929
1 4.177 9.159 7.929
1 8.472 6.68 7.929
1 12.766 4.2 7.929
1 17.061 1.721 7.929
1 4.177 14.118 7.929
1 8.472 11.639 7.929
1 12.766 9.159 7.929
1 17.061 6.68 7.929
1 2.863 1.517 7.929
1 7.158 18.8736 7.929
1 11.452 16.3946 7.929
1 15.747 13.9146 7.929
1 2.863 6.476 7.929
1 7.158 3.997 7.929
1 11.452 1.517 7.929
1 15.747 18.8736 7.929
1 2.863 11.435 7.929
1 7.158 8.956 7.929
1 11.452 6.476 7.929
1 15.747 3.997 7.929
1 2.863 16.394 7.929
1 7.158 13.915 7.929
1 11.452 11.435 7.929
1 15.747 8.956 7.929
1 1.549 19.0766 7.929
1 5.843 16.5976 7.929
1 10.138 14.1176 7.929
1 14.432 11.6386 7.929
1 1.549 4.2 7.929
1 5.843 1.721 7.929
1 10.138 19.0766 7.929
1 14.432 16.5976 7.929
1 1.549 9.159 7.929
1 5.843 6.68 7.929
1 10.138 4.2 7.929
1 14.432 1.721 7.929
1 1.549 14.118 7.929
1 5.843 11.639 7.929
1 10.138 9.159 7.929
1 14.432 6.68 7.929
1 1.549 0.759 1.133
1 5.843 18.1146 1.133
1 10.138 15.6356 1.133
1 14.432 13.1556 1.133
1 1.549 5.718 1.133
1 5.843 3.238 1.133
1 10.138 0.759 1.133
1 14.432 18.1146 1.133
1 1.549 10.677 1.133
1 5.843 8.197 1.133
1 10.138 5.718 1.133
1 14.432 3.238 1.133
1 1.549 15.635 1.133
1 5.843 13.156 1.133
1 10.138 10.677 1.133
1 14.432 8.197 1.133
1 2.863 18.3186 1.133
1 7.158 15.8386 1.133
1 11.452 13.3596 1.133
1 15.747 10.8796 1.133
1 2.863 3.441 1.133
1 7.158 0.962 1.133
1 11.452 18.3186 1.133
1 15.747 15.8386 1.133
1 2.863 8.4 1.133
1 7.158 5.921 1.133
1 11.452 3.441 1.133
1 15.747 0.962 1.133
1 2.863 13.359 1.133
1 7.158 10.88 1.133
1 11.452 8.4 1.133
1 15.747 5.921 1.133
1 4.177 0.759 1.133
1 8.472 18.1146 1.133
1 12.766 15.6356 1.133
1 17.061 13.1556 1.133
1 4.177 5.718 1.133
1 8.472 3.238 1.133
1 12.766 0.759 1.133
1 17.061 18.1146 1.133
1 4.177 10.677 1.133
1 8.472 8.197 1.133
1 12.766 5.718 1.133
1 17.061 3.238 1.133
1 4.177 15.635 1.133
1 8.472 13.156 1.133
1 12.766 10.677 1.133
1 17.061 8.197 1.133
1 2.746 1.721 12.46
1 7.04 19.0766 12.46
1 11.335 16.5976 12.46
1 15.629 14.1176 12.46
1 2.746 6.68 12.46
1 6.383 4.2 12.46
1 11.335 1.721 12.46
1 15.629 19.0766 12.46
1 2.746 11.639 12.46
1 7.04 9.159 12.46
1 11.335 6.68 12.46
1 15.629 4.2 12.46
1 2.746 16.597 12.46
1 7.04 14.118 12.46
1 11.335 11.639 12.46
1 15.629 9.159 12.46
1 1.432 3.997 12.46
1 5.726 1.517 12.46
1 10.021 18.8736 12.46
1 14.315 16.3946 12.46
1 1.432 8.956 12.46
1 5.726 6.476 12.46
1 10.021 3.997 12.46
1 14.315 1.517 12.46
1 1.432 13.915 12.46
1 5.726 11.435 12.46
1 10.021 8.956 12.46
1 14.315 6.476 12.46
1 1.432 18.874 12.46
1 5.726 16.394 12.46
1 10.021 13.915 12.46
1 14.315 11.435 12.46
1 0.117 1.721 12.46
1 4.412 19.0766 12.46
1 8.706 16.5976 12.46
1 13.001 14.1176 12.46
1 0.117 6.68 12.46
1 8.706 1.721 12.46
1 13.001 19.0766 12.46
1 0.117 11.639 12.46
1 4.412 9.159 12.46
1 8.706 6.68 12.46
1 13.001 4.2 12.46
1 0.117 16.597 12.46
1 4.412 14.118 12.46
1 8.706 11.639 12.46
1 13.001 9.159 12.46
1 0.117 3.238 5.664
1 4.412 0.759 5.664
1 8.706 18.1146 5.664
1 13.001 15.6356 5.664
1 0.117 8.197 5.664
1 4.412 5.718 5.664
1 8.706 3.238 5.664
1 13.001 0.759 5.664
1 0.117 13.156 5.664
1 4.412 10.677 5.664
1 8.706 8.197 5.664
1 13.001 5.718 5.664
1 0.117 18.115 5.664
1 4.412 15.635 5.664
1 8.706 13.156 5.664
1 13.001 10.677 5.664
1 1.432 0.962 5.664
1 5.726 18.3186 5.664
1 10.021 15.8386 5.664
1 14.315 13.3596 5.664
1 1.432 5.921 5.664
1 5.726 3.441 5.664
1 10.021 0.962 5.664
1 14.315 18.3186 5.664
1 1.432 10.88 5.664
1 5.726 8.4 5.664
1 10.021 5.921 5.664
1 14.315 3.441 5.664
1 1.432 15.839 5.664
1 5.726 13.359 5.664
1 10.021 10.88 5.664
1 14.315 8.4 5.664
1 2.746 3.238 5.664
1 7.04 0.759 5.664
1 11.335 18.1146 5.664
1 15.629 15.6356 5.664
1 2.746 8.197 5.664
1 7.04 5.718 5.664
1 11.335 3.238 5.664
1 15.629 0.759 5.664
1 2.746 13.156 5.664
1 7.04 10.677 5.664
1 11.335 8.197 5.664
1 15.629 5.718 5.664
1 2.746 18.115 5.664
1 7.04 15.635 5.664
1 11.335 13.156 5.664
1 15.629 10.677 5.664
2 0 0 4.724
2 4.295 17.3566 4.724
2 8.589 14.8766 4.724
2 12.884 12.3976 4.724
2 0 4.959 4.724
2 4.295 2.479 4.724
2 8.589 0 4.724
2 12.884 17.3566 4.724
2 0 9.918 4.724
2 4.295 7.438 4.724
2 8.589 4.959 4.724
2 12.884 2.479 4.724
2 0 14.877 4.724
2 4.295 12.397 4.724
2 8.589 9.918 4.724
2 12.884 7.438 4.724
2 0 0 2.073
2 4.295 17.3566 2.073
2 8.589 14.8766 2.073
2 12.884 12.3976 2.073
2 0 4.959 2.073
2 4.295 2.479 2.073
2 8.589 0 2.073
2 12.884 17.3566 2.073
2 0 9.918 2.073
2 4.295 7.438 2.073
2 8.589 4.959 2.073
2 12.884 2.479 2.073
2 0 14.877 2.073
2 4.295 12.397 2.073
2 8.589 9.918 2.073
2 12.884 7.438 2.073
2 0 0 8.869
2 4.295 17.3566 8.869
2 8.589 14.8766 8.869
2 12.884 12.3976 8.869
2 0 4.959 8.869
2 4.295 2.479 8.869
2 8.589 0 8.869
2 12.884 17.3566 8.869
2 0 9.918 8.869
2 4.295 7.438 8.869
2 8.589 4.959 8.869
2 12.884 2.479 8.869
2 0 14.877 8.869
2 4.295 12.397 8.869
2 8.589 9.918 8.869
2 12.884 7.438 8.869
2 0 0 11.52
2 4.295 17.3566 11.52
2 8.589 14.8766 11.52
2 12.884 12.3976 11.52
2 0 4.959 11.52
2 4.295 2.479 11.52
2 8.589 0 11.52
2 12.884 17.3566 11.52
2 0 9.918 11.52
2 4.295 7.438 11.52
2 8.589 4.959 11.52
2 12.884 2.479 11.52
2 0 14.877 11.52
2 4.295 12.397 11.52
2 8.589 9.918 11.52
2 12.884 7.438 11.52
2 2.863 0 9.255
2 7.158 17.3566 9.255
2 11.452 14.8766 9.255
2 15.747 12.3976 9.255
2 2.863 4.959 9.255
2 7.158 2.479 9.255
2 11.452 0 9.255
2 15.747 17.3566 9.255
2 2.863 9.918 9.255
2 7.158 7.438 9.255
2 11.452 4.959 9.255
2 15.747 2.479 9.255
2 2.863 14.877 9.255
2 7.158 12.397 9.255
2 11.452 9.918 9.255
2 15.747 7.438 9.255
2 2.863 0 6.604
2 7.158 17.3566 6.604
2 11.452 14.8766 6.604
2 15.747 12.3976 6.604
2 2.863 4.959 6.604
2 7.158 2.479 6.604
2 11.452 0 6.604
2 15.747 17.3566 6.604
2 2.863 9.918 6.604
2 7.158 7.438 6.604
2 11.452 4.959 6.604
2 15.747 2.479 6.604
2 2.863 14.877 6.604
2 7.158 12.397 6.604
2 11.452 9.918 6.604
2 15.747 7.438 6.604
2 2.863 0 13.401
2 7.158 17.3566 13.401
2 11.452 14.8766 13.401
2 15.747 12.3976 13.401
2 2.863 4.959 13.401
2 7.158 2.479 13.401
2 11.452 0 13.401
2 15.747 17.3566 13.401
2 2.863 9.918 13.401
2 7.158 7.438 13.401
2 11.452 4.959 13.401
2 15.747 2.479 13.401
2 2.863 14.877 13.401
2 7.158 12.397 13.401
2 11.452 9.918 13.401
2 15.747 7.438 13.401
2 2.863 0 2.458
2 7.158 17.3566 2.458
2 11.452 14.8766 2.458
2 15.747 12.3976 2.458
2 2.863 4.959 2.458
2 7.158 2.479 2.458
2 11.452 0 2.458
2 15.747 17.3566 2.458
2 2.863 9.918 2.458
2 7.158 7.438 2.458
2 11.452 4.959 2.458
2 15.747 2.479 2.458
2 2.863 14.877 2.458
2 7.158 12.397 2.458
2 11.452 9.918 2.458
2 15.747 7.438 2.458
2 1.432 2.479 0.193
2 5.726 0 0.193
2 10.021 17.3566 0.193
2 14.315 14.8766 0.193
2 1.432 7.438 0.193
2 5.726 4.959 0.193
2 10.021 2.479 0.193
2 14.315 0 0.193
2 1.432 12.397 0.193
2 5.726 9.918 0.193
2 10.021 7.438 0.193
2 14.315 4.959 0.193
2 1.432 17.356 0.193
2 5.726 14.877 0.193
2 10.021 12.397 0.193
2 14.315 9.918 0.193
2 1.432 2.479 11.135
2 5.726 0 11.135
2 10.021 17.3566 11.135
2 14.315 14.8766 11.135
2 1.432 7.438 11.135
2 5.726 4.959 11.135
2 10.021 2.479 11.135
2 14.315 0 11.135
2 1.432 12.397 11.135
2 5.726 9.918 11.135
2 10.021 7.438 11.135
2 14.315 4.959 11.135
2 1.432 17.356 11.135
2 5.726 14.877 11.135
2 10.021 12.397 11.135
2 14.315 9.918 11.135
2 1.432 2.479 4.338
2 5.726 0 4.338
2 10.021 17.3566 4.338
2 14.315 14.8766 4.338
2 1.432 7.438 4.338
2 5.726 4.959 4.338
2 10.021 2.479 4.338
2 14.315 0 4.338
2 1.432 12.397 4.338
2 5.726 9.918 4.338
2 10.021 7.438 4.338
2 14.315 4.959 4.338
2 1.432 17.356 4.338
2 5.726 14.877 4.338
2 10.021 12.397 4.338
2 14.315 9.918 4.338
2 1.432 2.479 6.989
2 5.726 0 6.989
2 10.021 17.3566 6.989
2 14.315 14.8766 6.989
2 1.432 7.438 6.989
2 5.726 4.959 6.989
2 10.021 2.479 6.989
2 14.315 0 6.989
2 1.432 12.397 6.989
2 5.726 9.918 6.989
2 10.021 7.438 6.989
2 14.315 4.959 6.989
2 1.432 17.356 6.989
2 5.726 14.877 6.989
2 10.021 12.397 6.989
2 14.315 9.918 6.98947479
Atoms. Timestep: 727
1 1.29569 19.093 3.39517
1 5.58752 16.6136 3.39074
1 9.88237 14.1318 3.39162
1 14.1769 11.6582 3.40595
1 1.30838 4.20994 3.42859
1 5.58366 1.75349 3.37539
1 9.87398 19.0951 3.3956
1 14.1755 16.6146 3.39931
1 1.29474 9.17106 3.41595
1 5.58422 6.66312 3.35195
1 9.87594 4.21063 3.38503
1 14.1748 1.72805 3.39762
1 1.29478 14.1305 3.40436
1 5.58935 11.6434 3.39286
1 9.88548 9.17072 3.38583
1 14.1811 6.69238 3.41229
1 -0.00739874 1.50157 3.39959
1 4.28924 18.8688 3.39053
1 8.58498 16.3805 3.38695
1 12.8797 13.9009 3.39686
1 -0.0105367 6.45844 3.43029
1 4.28527 3.99752 3.40237
1 8.58339 1.51417 3.37792
1 12.8761 18.8596 3.39414
1 -0.0051086 11.4199 3.40212
1 4.296 8.92493 3.39654
1 8.59738 6.4541 3.41484
1 12.8826 3.97702 3.39974
1 -0.00160736 16.3802 3.39707
1 4.2939 13.8921 3.39477
1 8.58685 11.4106 3.39193
1 12.8825 8.93688 3.39984
1 2.98865 1.75969 3.36999
1 7.28494 19.1001 3.37363
1 11.5811 16.6132 3.39113
1 15.8768 14.1371 3.40221
1 2.99834 6.6857 3.42605
1 7.2712 4.21058 3.37094
1 11.5797 1.73158 3.38974
1 15.8793 19.0906 3.39551
1 2.99374 11.646 3.40769
1 7.28341 9.16025 3.39442
1 11.5873 6.68835 3.3962
1 15.8839 4.21185 3.40389
1 2.99803 16.6113 3.39021
1 7.28955 14.127 3.38676
1 11.5828 11.6524 3.38972
1 15.8733 9.18273 3.42181
1 2.9969 18.0845 10.1871
1 7.29484 15.6057 10.184
1 11.5886 13.148 10.1883
1 15.8864 10.6607 10.2021
1 3.04793 3.20847 10.2984
1 7.28168 0.736925 10.1812
1 11.5801 18.1103 10.1918
1 15.8799 15.6285 10.1956
1 3.01721 8.14028 10.2111
1 7.33776 5.72749 10.1709
1 11.5745 3.23524 10.1949
1 15.891 0.758106 10.2056
1 2.99813 13.1305 10.1936
1 7.2878 10.6479 10.1879
1 11.5932 8.19151 10.1886
1 15.8901 5.70817 10.2182
1 0.00716423 3.46284 10.2108
1 4.31395 0.9164 10.1502
1 8.58312 18.3365 10.1834
1 12.882 15.8662 10.1922
1 0.00717144 8.40746 10.2181
1 4.31043 5.80794 10.3217
1 8.55546 3.47767 10.2321
1 12.8802 0.990539 10.194
1 -0.00159132 13.3749 10.2034
1 4.29254 10.8695 10.2048
1 8.60169 8.41944 10.1802
1 12.8873 5.94259 10.1978
1 0.00227717 18.3483 10.1917
1 4.28826 15.8406 10.1933
1 8.5901 13.3664 10.184
1 12.8868 10.9015 10.1938
1 1.32029 0.759155 10.1945
1 5.60731 18.0606 10.1665
1 9.88489 15.621 10.189
1 14.1814 13.1492 10.1988
1 1.30151 5.69678 10.2208
1 5.56077 3.20953 10.2401
1 9.8758 0.753454 10.1924
1 14.1803 18.1135 10.1944
1 1.30101 10.6521 10.2149
1 5.59126 8.12594 10.2115
1 9.89756 5.7058 10.1944
1 14.1773 3.2337 10.1967
1 1.29382 15.6213 10.1952
1 5.58801 13.1295 10.1968
1 9.88575 10.6661 10.185
1 14.1847 8.18718 10.2019
1 4.15618 19.0752 7.90756
1 8.45368 16.6006 7.92629
1 12.7507 14.1327 7.92876
1 17.049 11.6466 7.94356
1 4.17745 4.1981 7.93899
1 8.44885 1.7389 7.93616
1 12.7441 19.0905 7.92957
1 17.0432 16.6119 7.93319
1 4.17247 9.16182 7.9425
1 8.45865 6.69499 7.90215
1 12.7484 4.20958 7.92986
1 17.0448 1.72834 7.93563
1 4.15982 14.1209 7.92684
1 8.45709 11.643 7.91718
1 12.756 9.1711 7.92853
1 17.0598 6.68003 7.94796
1 2.87246 1.51227 7.91393
1 7.15782 18.8503 7.91639
1 11.4509 16.376 7.92502
1 15.7477 13.8967 7.92965
1 2.88707 6.44323 7.9682
1 7.13893 3.98612 7.96868
1 11.4473 1.49963 7.92822
1 15.7431 18.86 7.93029
1 2.86403 11.4055 7.93116
1 7.15641 8.92374 7.92958
1 11.4569 6.45408 7.93087
1 15.7533 3.97691 7.94325
1 2.86491 16.3715 7.9186
1 7.15898 13.8845 7.91912
1 11.4559 11.4142 7.92466
1 15.7562 8.93066 7.93967
1 1.57111 19.0926 7.92806
1 5.8668 16.5928 7.90869
1 10.1568 14.1241 7.9198
1 14.4522 11.6516 7.93616
1 1.59164 4.19169 7.97109
1 5.86308 1.73123 7.90351
1 10.1504 19.0862 7.91897
1 14.4491 16.6133 7.92892
1 1.57684 9.15888 7.95993
1 5.85231 6.66759 7.97035
1 10.1461 4.20579 7.92568
1 14.4504 1.73278 7.93065
1 1.56569 14.1265 7.93615
1 5.85942 11.6412 7.93182
1 10.1591 9.16922 7.91995
1 14.4577 6.68856 7.94041
1 1.56516 0.754689 1.1271
1 5.84913 18.1119 1.11844
1 10.1479 15.6312 1.12417
1 14.4434 13.155 1.13572
1 1.52295 5.75536 1.19035
1 5.7608 3.29592 1.04916
1 10.1273 0.764723 1.12053
1 14.4449 18.1131 1.13165
1 1.56088 10.6601 1.14508
1 5.85549 8.15714 1.10416
1 10.1618 5.7162 1.13333
1 14.4487 3.22984 1.13773
1 1.56205 15.6213 1.13498
1 5.85923 13.1385 1.12762
1 10.1554 10.6688 1.11899
1 14.4363 8.1901 1.13532
1 2.86215 18.3418 1.11883
1 7.15288 15.8622 1.12373
1 11.4482 13.3848 1.12713
1 15.7337 10.9122 1.14504
1 2.86375 3.51247 1.05181
1 7.12206 1.01692 1.11678
1 11.4412 18.3518 1.13259
1 15.7431 15.8654 1.13424
1 2.8488 8.41352 1.15217
1 7.20005 5.96016 1.16285
1 11.4339 3.465 1.13019
1 15.7508 0.993275 1.12524
1 2.85902 13.3715 1.13563
1 7.15501 10.8864 1.12649
1 11.4498 8.4205 1.12803
1 15.7312 5.95043 1.14858
1 4.14735 0.753759 1.12044
1 8.44151 18.1165 1.11495
1 12.7434 15.6338 1.12959
1 17.0389 13.1476 1.1405
1 4.13601 5.68059 1.06547
1 8.396 3.26332 1.10159
1 12.7383 0.756155 1.12136
1 17.0433 18.1077 1.13053
1 4.15577 10.6554 1.13326
1 8.45275 8.19771 1.11866
1 12.7463 5.70409 1.13725
1 17.0575 3.24495 1.14142
1 4.15714 15.6205 1.12849
1 8.4505 13.1413 1.12525
1 12.7449 10.6703 1.13376
1 17.0156 8.22207 1.16779
1 2.76961 1.72456 12.4336
1 7.01149 19.0906 12.4316
1 11.3113 16.6151 12.4565
1 15.6097 14.1308 12.465
1 2.72454 6.64116 12.4974
1 6.79552 4.19735 12.4174
1 11.2944 1.73931 12.4476
1 15.6126 19.0941 12.4611
1 2.73358 11.641 12.4648
1 7.01592 9.14532 12.4395
1 11.3015 6.68757 12.4538
1 15.6113 4.20871 12.468
1 2.72095 16.6014 12.4623
1 7.01973 14.1239 12.4535
1 11.3148 11.6481 12.4512
1 15.6125 9.16334 12.4714
1 1.44618 4.01718 12.5011
1 5.67645 1.51271 12.4317
1 10.0156 18.8659 12.4571
1 14.3114 16.3812 12.4595
1 1.43323 8.92387 12.4919
1 5.65486 6.3358 12.5171
1 9.99115 3.98765 12.4676
1 14.3133 1.50454 12.4603
1 1.42968 13.8887 12.4628
1 5.72133 11.3953 12.4659
1 10.0112 8.92225 12.4498
1 14.308 6.45191 12.4667
1 1.42935 18.8582 12.4575
1 5.71964 16.3745 12.4531
1 10.0173 13.8936 12.4546
1 14.3143 11.414 12.4629
1 0.162292 1.7487 12.4643
1 4.4303 19.0879 12.4305
1 8.71895 16.6101 12.4482
1 13.0148 14.1329 12.4576
1 0.141431 6.68945 12.5039
1 8.69108 1.74659 12.4487
1 13.0157 19.0959 12.4574
1 0.134005 11.6446 12.4735
1 4.42732 9.13877 12.4727
1 8.68204 6.66203 12.4551
1 13.01 4.20765 12.4634
1 0.132151 16.6102 12.4587
1 4.42842 14.1217 12.4606
1 8.71687 11.6427 12.4512
1 13.013 9.16702 12.4588
1 0.139361 3.22927 5.68697
1 4.42401 0.759285 5.6498
1 8.71515 18.1022 5.65121
1 13.015 15.6301 5.65999
1 0.139769 8.18544 5.67845
1 4.43461 5.71074 5.66891
1 8.70931 3.23979 5.664
1 13.0117 0.752286 5.66356
1 0.133256 13.1465 5.66832
1 4.43157 10.6556 5.66493
1 8.72916 8.19204 5.64899
1 13.0229 5.70683 5.66458
1 0.132337 18.1088 5.66637
1 4.42829 15.6212 5.65535
1 8.7246 13.1419 5.65193
1 13.02 10.6694 5.65656
1 1.43279 0.987326 5.64994
1 5.72488 18.3413 5.65416
1 10.018 15.8601 5.6581
1 14.313 13.3855 5.66671
1 1.44154 5.93232 5.69237
1 5.72773 3.46583 5.66753
1 10.01 0.989705 5.65886
1 14.3109 18.3446 5.66185
1 1.42616 10.8955 5.67855
1 5.72974 8.3995 5.66194
1 10.0274 5.93787 5.66824
1 14.3169 3.46138 5.66575
1 1.42925 15.861 5.6643
1 5.72551 13.3712 5.66221
1 10.0247 10.899 5.6566
1 14.3184 8.42107 5.67443
1 2.7412 3.23557 5.67324
1 7.02213 0.749734 5.643
1 11.312 18.108 5.65759
1 15.6102 15.6312 5.66695
1 2.72909 8.18565 5.68798
1 7.0217 5.7089 5.66347
1 11.3113 3.22967 5.65643
1 15.611 0.751547 5.66484
1 2.72664 13.1427 5.66728
1 7.02105 10.6572 5.66206
1 11.3211 8.18607 5.66169
1 15.6176 5.70476 5.68707
1 2.72684 18.108 5.64891
1 7.02338 15.6192 5.6467
1 11.3177 13.147 5.6596
1 15.6113 10.6717 5.68346
2 -0.0125624 -0.00881786 4.86478
2 4.2925 17.3491 4.85805
2 8.59123 14.8726 4.85481
2 12.8843 12.4072 4.86342
2 -0.00273653 4.96231 4.90343
2 4.29359 2.48353 4.85705
2 8.59035 -0.00854572 4.85407
2 12.8788 17.3569 4.86307
2 -0.0103552 9.9282 4.89089
2 4.28508 7.44797 4.88028
2 8.60477 4.96755 4.87647
2 12.8846 2.47724 4.86326
2 -0.00575103 14.8798 4.87012
2 4.29106 12.3981 4.86737
2 8.59558 9.92723 4.85651
2 12.894 7.4424 4.86906
2 -0.00814035 -0.00708723 1.93163
2 4.28982 17.3479 1.9241
2 8.58765 14.8759 1.9207
2 12.8772 12.4054 1.92754
2 -0.044644 4.97064 1.97826
2 4.2722 2.4837 1.91434
2 8.57639 0.0014599 1.91712
2 12.878 17.3607 1.92799
2 -0.0233622 9.95488 1.96427
2 4.28384 7.46131 1.93917
2 8.63102 4.96716 1.95821
2 12.8715 2.47614 1.92613
2 -0.00483978 14.879 1.93469
2 4.2937 12.3986 1.93121
2 8.59831 9.9287 1.92082
2 12.8785 7.44438 1.93174
2 -0.00917923 -0.00199973 8.72545
2 4.3037 17.3299 8.71183
2 8.59556 14.8549 8.71746
2 12.8858 12.4047 8.72604
2 0.00285146 4.95719 8.73745
2 4.30759 2.46667 8.61369
2 8.59287 -0.019831 8.71467
2 12.8809 17.3563 8.72496
2 -0.000408242 9.92181 8.74062
2 4.2999 7.45545 8.73161
2 8.60776 4.97198 8.698
2 12.8809 2.47629 8.72451
2 -0.00352113 14.8783 8.73038
2 4.29251 12.3923 8.72611
2 8.60618 9.93094 8.71362
2 12.8907 7.44593 8.72733
2 -0.00238335 -0.00845859 11.6608
2 4.27481 17.3256 11.655
2 8.58808 14.8724 11.6544
2 12.8852 12.4027 11.6608
2 -0.0227967 4.96897 11.6634
2 4.27821 2.20572 11.4672
2 8.60483 0.00180569 11.6599
2 12.8801 17.3604 11.6608
2 -0.00638191 9.9205 11.6745
2 4.28456 7.40095 11.6996
2 8.63386 4.97247 11.6383
2 12.8799 2.47899 11.6614
2 -0.00466187 14.8721 11.6658
2 4.29637 12.3927 11.6609
2 8.58947 9.9256 11.6473
2 12.8827 7.4417 11.6614
2 2.85158 -0.0446389 9.35942
2 7.1759 17.3168 9.36676
2 11.4551 14.879 9.39251
2 15.7454 12.399 9.40501
2 2.86507 4.94162 9.43319
2 7.17584 2.45363 9.38528
2 11.453 -0.0017953 9.39365
2 15.7415 17.3553 9.39621
2 2.85817 9.91213 9.41161
2 7.18519 7.47008 9.36446
2 11.467 4.96386 9.39308
2 15.7408 2.48155 9.39999
2 2.85615 14.865 9.39662
2 7.15286 12.3879 9.3949
2 11.4626 9.92664 9.38945
2 15.7488 7.44093 9.41069
2 2.86023 -0.00915813 6.43491
2 7.15815 17.3399 6.44034
2 11.4531 14.8771 6.45669
2 15.7424 12.4076 6.47032
2 2.86994 4.95842 6.48655
2 7.15913 2.46661 6.44634
2 11.4484 -0.00431235 6.45705
2 15.7419 17.3573 6.46218
2 2.86033 9.92721 6.47352
2 7.17738 7.45212 6.44302
2 11.4624 4.95786 6.45837
2 15.7362 2.47291 6.4671
2 2.86192 14.8754 6.45998
2 7.16452 12.3968 6.45599
2 11.4603 9.92561 6.45418
2 15.7462 7.44352 6.47604
2 2.85444 -0.0280234 13.2677
2 7.15485 17.3467 13.2492
2 11.4491 14.8815 13.2527
2 15.7407 12.4034 13.2647
2 2.62061 5.08147 13.4628
2 7.11091 2.48023 13.2278
2 11.4492 0.0060052 13.2571
2 15.741 17.3571 13.2573
2 2.87504 9.93294 13.2627
2 7.17317 7.46523 13.2556
2 11.4519 4.95968 13.2645
2 15.7364 2.48097 13.2634
2 2.86003 14.8655 13.2612
2 7.15799 12.3962 13.2527
2 11.4496 9.92314 13.2517
2 15.7159 7.4403 13.2737
2 2.85652 -0.00313405 2.60108
2 7.15431 17.3537 2.59036
2 11.4502 14.882 2.59468
2 15.7326 12.4152 2.60804
2 2.85186 4.97001 2.7242
2 7.15936 2.47893 2.59654
2 11.443 -0.00202944 2.5979
2 15.74 17.3533 2.60028
2 2.84985 9.92923 2.61498
2 7.17613 7.44773 2.6106
2 11.4701 4.96296 2.60448
2 15.736 2.47272 2.60584
2 2.85787 14.8729 2.60244
2 7.15603 12.3988 2.59506
2 11.4572 9.92557 2.59389
2 15.7342 7.46092 2.62276
2 1.41556 2.45814 0.335793
2 5.70853 -0.00733508 0.324837
2 10.0174 17.3593 0.32866
2 14.3097 14.8825 0.335436
2 1.3664 7.54309 0.3821
2 5.81186 5.05426 0.473978
2 9.9945 2.48668 0.326962
2 14.3103 -8.31388e-06 0.332267
2 1.42174 12.3968 0.343249
2 5.72452 9.92288 0.337237
2 10.0274 7.44393 0.333677
2 14.3097 4.9586 0.342765
2 1.42108 17.3414 0.334417
2 5.72205 14.8709 0.329799
2 10.0213 12.4028 0.325528
2 14.3105 9.92717 0.341519
2 1.40668 2.47834 11.0042
2 5.78237 -0.112286 10.953
2 10.019 17.3496 10.9862
2 14.3122 14.8816 10.9934
2 1.42773 7.43089 11.0117
2 5.85693 4.97133 10.8533
2 10.0228 2.47532 10.9873
2 14.3128 0.00175628 10.9923
2 1.43007 12.3957 11.0006
2 5.72135 9.89752 10.9953
2 10.0338 7.45461 10.9775
2 14.3055 4.95955 10.9981
2 1.42245 17.3462 10.9894
2 5.72737 14.8668 10.986
2 10.0261 12.3998 10.9837
2 14.3122 9.92163 10.9973
2 1.41391 2.46665 4.20755
2 5.72391 0.000991955 4.17728
2 10.0178 17.353 4.18777
2 14.3093 14.8845 4.19834
2 1.41312 7.45709 4.22426
2 5.73825 4.96307 4.20736
2 10.0228 2.47547 4.19049
2 14.3064 -0.00409586 4.19423
2 1.426 12.4049 4.20541
2 5.7276 9.92427 4.19431
2 10.0347 7.45072 4.19404
2 14.3134 4.95955 4.20621
2 1.42919 17.3534 4.19226
2 5.72699 14.8747 4.18672
2 10.0233 12.4018 4.18653
2 14.3049 9.93187 4.20705
2 1.41794 2.4732 7.13213
2 5.72991 -0.0273643 7.11046
2 10.0217 17.3482 7.12322
2 14.314 14.8814 7.13275
2 1.43753 7.43896 7.15916
2 5.73724 4.97125 7.12219
2 10.0255 2.47523 7.12518
2 14.3089 -0.00347045 7.13029
2 1.42743 12.4003 7.14028
2 5.72765 9.92525 7.12856
2 10.0411 7.4462 7.12099
2 14.321 4.96093 7.14072
2 1.42722 17.3492 7.12794
2 5.72522 14.8607 7.12015
2 10.0278 12.3982 7.1202
479479
Atoms479
Atoms. Ti479
Atoms. Timestep: 728
1 1.29569 19.093 3.39517
1 5.58752 16.6136 3.39074
1 9.88237 14.1318 3.39162
1 14.1769 11.6582 3.40595
1 1.30838 4.20994 3.42859
1 5.58366 1.75349 3.37539
1 9.87398 19.0951 3.3956
1 14.1755 16.6146 3.39931
1 1.29474 9.17106 3.41595
1 5.58422 6.66312 3.35195
1 9.87594 4.21063 3.38503
1 14.1748 1.72805 3.39762
1 1.29478 14.1305 3.40436
1 5.58935 11.6434 3.39286
1 9.88548 9.17072 3.38583
1 14.1811 6.69238 3.41229
1 17.1707 1.50157 3.39959
1 4.28924 18.8688 3.39053
1 8.58498 16.3805 3.38695
1 12.8797 13.9009 3.39686
1 17.1676 6.45844 3.43029
1 4.28527 3.99752 3.40237
1 8.58339 1.51417 3.37792
1 12.8761 18.8596 3.39414
1 17.173 11.4199 3.40212
1 4.296 8.92493 3.39654
1 8.59738 6.4541 3.41484
1 12.8826 3.97702 3.39974
1 17.1765 16.3802 3.39707
1 4.2939 13.8921 3.39477
1 8.58685 11.4106 3.39193
1 12.8825 8.93688 3.39984
1 2.98865 1.75969 3.36999
1 7.28494 19.1001 3.37363
1 11.5811 16.6132 3.39113
1 15.8768 14.1371 3.40221
1 2.99834 6.6857 3.42605
1 7.2712 4.21058 3.37094
1 11.5797 1.73158 3.38974
1 15.8793 19.0906 3.39551
1 2.99374 11.646 3.40769
1 7.28341 9.16025 3.39442
1 11.5873 6.68835 3.3962
1 15.8839 4.21185 3.40389
1 2.99803 16.6113 3.39021
1 7.28955 14.127 3.38676
1 11.5828 11.6524 3.38972
1 15.8733 9.18273 3.42181
1 2.9969 18.0845 10.1871
1 7.29484 15.6057 10.184
1 11.5886 13.148 10.1883
1 15.8864 10.6607 10.2021
1 3.04793 3.20847 10.2984
1 7.28168 0.736925 10.1812
1 11.5801 18.1103 10.1918
1 15.8799 15.6285 10.1956
1 3.01721 8.14028 10.2111
1 7.33776 5.72749 10.1709
1 11.5745 3.23524 10.1949
1 15.891 0.758106 10.2056
1 2.99813 13.1305 10.1936
1 7.2878 10.6479 10.1879
1 11.5932 8.19151 10.1886
1 15.8901 5.70817 10.2182
1 0.00716423 3.46284 10.2108
1 4.31395 0.9164 10.1502
1 8.58312 18.3365 10.1834
1 12.882 15.8662 10.1922
1 0.00717144 8.40746 10.2181
1 4.31043 5.80794 10.3217
1 8.55546 3.47767 10.2321
1 12.8802 0.990539 10.194
1 17.1765 13.3749 10.2034
1 4.29254 10.8695 10.2048
1 8.60169 8.41944 10.1802
1 12.8873 5.94259 10.1978
1 0.00227717 18.3483 10.1917
1 4.28826 15.8406 10.1933
1 8.5901 13.3664 10.184
1 12.8868 10.9015 10.1938
1 1.32029 0.759155 10.1945
1 5.60731 18.0606 10.1665
1 9.88489 15.621 10.189
1 14.1814 13.1492 10.1988
1 1.30151 5.69678 10.2208
1 5.56077 3.20953 10.2401
1 9.8758 0.753454 10.1924
1 14.1803 18.1135 10.1944
1 1.30101 10.6521 10.2149
1 5.59126 8.12594 10.2115
1 9.89756 5.7058 10.1944
1 14.1773 3.2337 10.1967
1 1.29382 15.6213 10.1952
1 5.58801 13.1295 10.1968
1 9.88575 10.6661 10.185
1 14.1847 8.18718 10.2019
1 4.15618 19.0752 7.90756
1 8.45368 16.6006 7.92629
1 12.7507 14.1327 7.92876
1 17.049 11.6466 7.94356
1 4.17745 4.1981 7.93899
1 8.44885 1.7389 7.93616
1 12.7441 19.0905 7.92957
1 17.0432 16.6119 7.93319
1 4.17247 9.16182 7.9425
1 8.45865 6.69499 7.90215
1 12.7484 4.20958 7.92986
1 17.0448 1.72834 7.93563
1 4.15982 14.1209 7.92684
1 8.45709 11.643 7.91718
1 12.756 9.1711 7.92853
1 17.0598 6.68003 7.94796
1 2.87246 1.51227 7.91393
1 7.15782 18.8503 7.91639
1 11.4509 16.376 7.92502
1 15.7477 13.8967 7.92965
1 2.88707 6.44323 7.9682
1 7.13893 3.98612 7.96868
1 11.4473 1.49963 7.92822
1 15.7431 18.86 7.93029
1 2.86403 11.4055 7.93116
1 7.15641 8.92374 7.92958
1 11.4569 6.45408 7.93087
1 15.7533 3.97691 7.94325
1 2.86491 16.3715 7.9186
1 7.15898 13.8845 7.91912
1 11.4559 11.4142 7.92466
1 15.7562 8.93066 7.93967
1 1.57111 19.0926 7.92806
1 5.8668 16.5928 7.90869
1 10.1568 14.1241 7.9198
1 14.4522 11.6516 7.93616
1 1.59164 4.19169 7.97109
1 5.86308 1.73123 7.90351
1 10.1504 19.0862 7.91897
1 14.4491 16.6133 7.92892
1 1.57684 9.15888 7.95993
1 5.85231 6.66759 7.97035
1 10.1461 4.20579 7.92568
1 14.4504 1.73278 7.93065
1 1.56569 14.1265 7.93615
1 5.85942 11.6412 7.93182
1 10.1591 9.16922 7.91995
1 14.4577 6.68856 7.94041
1 1.56516 0.754689 1.1271
1 5.84913 18.1119 1.11844
1 10.1479 15.6312 1.12417
1 14.4434 13.155 1.13572
1 1.52295 5.75536 1.19035
1 5.7608 3.29592 1.04916
1 10.1273 0.764723 1.12053
1 14.4449 18.1131 1.13165
1 1.56088 10.6601 1.14508
1 5.85549 8.15714 1.10416
1 10.1618 5.7162 1.13333
1 14.4487 3.22984 1.13773
1 1.56205 15.6213 1.13498
1 5.85923 13.1385 1.12762
1 10.1554 10.6688 1.11899
1 14.4363 8.1901 1.13532
1 2.86215 18.3418 1.11883
1 7.15288 15.8622 1.12373
1 11.4482 13.3848 1.12713
1 15.7337 10.9122 1.14504
1 2.86375 3.51247 1.05181
1 7.12206 1.01692 1.11678
1 11.4412 18.3518 1.13259
1 15.7431 15.8654 1.13424
1 2.8488 8.41352 1.15217
1 7.20005 5.96016 1.16285
1 11.4339 3.465 1.13019
1 15.7508 0.993275 1.12524
1 2.85902 13.3715 1.13563
1 7.15501 10.8864 1.12649
1 11.4498 8.4205 1.12803
1 15.7312 5.95043 1.14858
1 4.14735 0.753759 1.12044
1 8.44151 18.1165 1.11495
1 12.7434 15.6338 1.12959
1 17.0389 13.1476 1.1405
1 4.13601 5.68059 1.06547
1 8.396 3.26332 1.10159
1 12.7383 0.756155 1.12136
1 17.0433 18.1077 1.13053
1 4.15577 10.6554 1.13326
1 8.45275 8.19771 1.11866
1 12.7463 5.70409 1.13725
1 17.0575 3.24495 1.14142
1 4.15714 15.6205 1.12849
1 8.4505 13.1413 1.12525
1 12.7449 10.6703 1.13376
1 17.0156 8.22207 1.16779
1 2.76961 1.72456 12.4336
1 7.01149 19.0906 12.4316
1 11.3113 16.6151 12.4565
1 15.6097 14.1308 12.465
1 2.72454 6.64116 12.4974
1 6.79552 4.19735 12.4174
1 11.2944 1.73931 12.4476
1 15.6126 19.0941 12.4611
1 2.73358 11.641 12.4648
1 7.01592 9.14532 12.4395
1 11.3015 6.68757 12.4538
1 15.6113 4.20871 12.468
1 2.72095 16.6014 12.4623
1 7.01973 14.1239 12.4535
1 11.3148 11.6481 12.4512
1 15.6125 9.16334 12.4714
1 1.44618 4.01718 12.5011
1 5.67645 1.51271 12.4317
1 10.0156 18.8659 12.4571
1 14.3114 16.3812 12.4595
1 1.43323 8.92387 12.4919
1 5.65486 6.3358 12.5171
1 9.99115 3.98765 12.4676
1 14.3133 1.50454 12.4603
1 1.42968 13.8887 12.4628
1 5.72133 11.3953 12.4659
1 10.0112 8.92225 12.4498
1 14.308 6.45191 12.4667
1 1.42935 18.8582 12.4575
1 5.71964 16.3745 12.4531
1 10.0173 13.8936 12.4546
1 14.3143 11.414 12.4629
1 0.162292 1.7487 12.4643
1 4.4303 19.0879 12.4305
1 8.71895 16.6101 12.4482
1 13.0148 14.1329 12.4576
1 0.141431 6.68945 12.5039
1 8.69108 1.74659 12.4487
1 13.0157 19.0959 12.4574
1 0.134005 11.6446 12.4735
1 4.42732 9.13877 12.4727
1 8.68204 6.66203 12.4551
1 13.01 4.20765 12.4634
1 0.132151 16.6102 12.4587
1 4.42842 14.1217 12.4606
1 8.71687 11.6427 12.4512
1 13.013 9.16702 12.4588
1 0.139361 3.22927 5.68697
1 4.42401 0.759285 5.6498
1 8.71515 18.1022 5.65121
1 13.015 15.6301 5.65999
1 0.139769 8.18544 5.67845
1 4.43461 5.71074 5.66891
1 8.70931 3.23979 5.664
1 13.0117 0.752286 5.66356
1 0.133256 13.1465 5.66832
1 4.43157 10.6556 5.66493
1 8.72916 8.19204 5.64899
1 13.0229 5.70683 5.66458
1 0.132337 18.1088 5.66637
1 4.42829 15.6212 5.65535
1 8.7246 13.1419 5.65193
1 13.02 10.6694 5.65656
1 1.43279 0.987326 5.64994
1 5.72488 18.3413 5.65416
1 10.018 15.8601 5.6581
1 14.313 13.3855 5.66671
1 1.44154 5.93232 5.69237
1 5.72773 3.46583 5.66753
1 10.01 0.989705 5.65886
1 14.3109 18.3446 5.66185
1 1.42616 10.8955 5.67855
1 5.72974 8.3995 5.66194
1 10.0274 5.93787 5.66824
1 14.3169 3.46138 5.66575
1 1.42925 15.861 5.6643
1 5.72551 13.3712 5.66221
1 10.0247 10.899 5.6566
1 14.3184 8.42107 5.67443
1 2.7412 3.23557 5.67324
1 7.02213 0.749734 5.643
1 11.312 18.108 5.65759
1 15.6102 15.6312 5.66695
1 2.72909 8.18565 5.68798
1 7.0217 5.7089 5.66347
1 11.3113 3.22967 5.65643
1 15.611 0.751547 5.66484
1 2.72664 13.1427 5.66728
1 7.02105 10.6572 5.66206
1 11.3211 8.18607 5.66169
1 15.6176 5.70476 5.68707
1 2.72684 18.108 5.64891
1 7.02338 15.6192 5.6467
1 11.3177 13.147 5.6596
1 15.6113 10.6717 5.68346
2 17.1655 19.8268 4.86478
2 4.2925 17.3491 4.85805
2 8.59123 14.8726 4.85481