LAMMPS (28 Jun 2014)
Processor partition = 1
Reading data file ...
  orthogonal box = (0 0 0) to (17.1781 19.8356 13.5931)
  1 by 1 by 1 MPI processor grid
  reading atoms ...
  479 atoms
287 atoms in group oxygen
192 atoms in group chromium
WARNING: Resetting reneighboring criteria during minimization (../min.cpp:168)
PPPM initialization ...
WARNING: System is not charge neutral, net charge = 2 (../kspace.cpp:278)
  G vector (1/distance) = 0.315056
  grid = 18 18 15
  stencil order = 5
  estimated absolute RMS force accuracy = 0.00121379
  estimated relative force accuracy = 8.42928e-05
  using double precision FFTs
  3d grid and FFT values/proc = 13750 4860
Setting up minimization ...
Memory usage per processor = 4.77636 Mbytes
Step PotEng Pxx Pyy Pzz Pxy Pxz Pyz Lx Ly Lz Temp 
       0   -14779.469   -137404.81   -138417.74   -34800.109    739.47724   -1236.7587    1831.3732      17.1781      19.8356     13.59308            0 
     100   -14850.754   -86634.464   -85802.416   -187897.45   -361.56729   -1413.3644    1990.0166      17.1781      19.8356     13.59308   0.16419599 
     200   -14850.764   -86651.307   -85698.593   -187777.73   -356.18339   -1487.7238    2044.2727      17.1781      19.8356     13.59308 0.00030485983 
     300   -14850.766   -86633.813   -85688.505   -187745.41   -363.68369   -1502.2869    2067.7354      17.1781      19.8356     13.59308 1.7323228e-05 
     400   -14850.767   -86619.695   -85696.899   -187741.72   -374.94363   -1494.9324    2079.9524      17.1781      19.8356     13.59308 2.2664794e-05 
     500   -14850.769   -86613.303   -85705.855   -187745.19    -381.9962   -1486.4277    2085.3815      17.1781      19.8356     13.59308 6.6524832e-06 
     600   -14850.769   -86609.274   -85711.372   -187747.52   -386.12067    -1480.744    2088.1412      17.1781      19.8356     13.59308 1.8532623e-06 
     700    -14850.77   -86607.225   -85714.762   -187749.25   -388.44185    -1477.361     2089.657      17.1781      19.8356     13.59308 8.7476478e-07 
     727    -14850.77   -86606.503   -85715.802   -187749.78   -389.21883   -1476.1784    2090.1826      17.1781      19.8356     13.59308 5.4633558e-08 
Loop time of 23.7236 on 1 procs for 727 steps with 479 atoms

Minimization stats:
  Stopping criterion = force tolerance
  Energy initial, next-to-last, final = 
        -14779.4691701      -14850.769788     -14850.7697723
  Force two-norm initial, final = 77.6996 0.00043734
  Force max component initial, final = 13.2486 0.0001542
  Final line search alpha, max atom move = 0 0
  Iterations, force evaluations = 727 727

Pair  time (%) = 14.9971 (63.2157)
Kspce time (%) = 2.62187 (11.0517)
Neigh time (%) = 0 (0)
Comm  time (%) = 0.0556962 (0.234771)
Outpt time (%) = 0.000259876 (0.00109543)
Other time (%) = 6.04876 (25.4968)

Nlocal:    479 ave 479 max 479 min
Histogram: 1 0 0 0 0 0 0 0 0 0
Nghost:    6483 ave 6483 max 6483 min
Histogram: 1 0 0 0 0 0 0 0 0 0
Neighs:    179005 ave 179005 max 179005 min
Histogram: 1 0 0 0 0 0 0 0 0 0

Total # of neighbors = 179005
Ave neighs/atom = 373.706
Neighbor list builds = 0
Dangerous builds = 0
WARNING: Resetting reneighboring criteria during minimization (../min.cpp:168)
Setting up minimization ...
Memory usage per processor = 4.77636 Mbytes
Step PotEng Pxx Pyy Pzz Pxy Pxz Pyz Lx Ly Lz Temp 
     727    -14850.77   -86606.503   -85715.802   -187749.78   -389.21883   -1476.1784    2090.1826      17.1781      19.8356     13.59308            0 
     728    -14850.77   -86606.503   -85715.802   -187749.78   -389.21883   -1476.1784    2090.1826      17.1781      19.8356     13.59308 1.194219e-08 
Loop time of 0.211353 on 1 procs for 1 steps with 479 atoms

Minimization stats:
  Stopping criterion = force tolerance
  Energy initial, next-to-last, final = 
        -14850.7697723     -14850.7697723     -14850.7697723
  Force two-norm initial, final = 0.00043734 0.00043734
  Force max component initial, final = 0.0001542 0.0001542
  Final line search alpha, max atom move = 0 0
  Iterations, force evaluations = 1 1

Pair  time (%) = 0.0357499 (16.9148)
Kspce time (%) = 0.0162642 (7.69528)
Neigh time (%) = 0 (0)
Comm  time (%) = 0.000144958 (0.068586)
Outpt time (%) = 0 (0)
Other time (%) = 0.159194 (75.3213)

Nlocal:    479 ave 479 max 479 min
Histogram: 1 0 0 0 0 0 0 0 0 0
Nghost:    6483 ave 6483 max 6483 min
Histogram: 1 0 0 0 0 0 0 0 0 0
Neighs:    180396 ave 180396 max 180396 min
Histogram: 1 0 0 0 0 0 0 0 0 0

Total # of neighbors = 180396
Ave neighs/atom = 376.61
Neighbor list builds = 0
Dangerous builds = 0
