LAMMPS (28 Jun 2014)
Running on 20 partitions of processors
Step MaxReplicaForce MaxAtomForce GradV0 GradV1 GradVc EBF EBR RDT RD1 PE1 RD2 PE2 ... RDN PEN
0    97.019048    17.463412    92.768193    92.773276    97.038452    24.227534    24.215445    5.7389286            0   -14735.466  0.052631579    -14735.08   0.10526316   -14732.361   0.15789474   -14727.787   0.21052632   -14722.625   0.26315789   -14718.462   0.31578947   -14715.798   0.36842105   -14713.928   0.42105263   -14712.309   0.47368421    -14711.24   0.52631579   -14711.239   0.57894737   -14712.305   0.63157895   -14713.922   0.68421053   -14715.791   0.73684211   -14718.455   0.78947368   -14722.621   0.84210526   -14727.782   0.89473684   -14732.353   0.94736842    -14735.07            1   -14735.454 
100   0.50803295   0.11925287     0.290197   0.28996216   0.46120122     7.898285    7.8983239    8.3272048            0   -14820.967  0.051394335   -14820.651   0.10304976   -14819.425    0.1548194   -14817.792   0.20684366   -14816.166   0.25891976   -14814.673   0.31135337   -14813.647   0.36454741   -14813.119   0.41838055   -14813.069   0.47275939   -14813.142   0.52729373   -14813.142   0.58167144   -14813.069   0.63550346   -14813.119   0.68869443   -14813.648   0.74112373   -14814.674   0.79319461   -14816.167   0.84521212   -14817.793   0.89697318   -14819.426   0.94861789   -14820.651            1   -14820.967 
200  0.097294809  0.020862559  0.034604437  0.034583878    0.1318145    7.8523108    7.8523282     8.723608            0   -14820.992  0.052394559    -14820.72   0.10460183   -14819.498   0.15691629   -14817.811   0.20926855   -14816.195   0.26182827   -14814.675   0.31448348   -14813.641   0.36731037   -14813.173   0.42030862    -14813.14   0.47344129   -14813.187    0.5266016   -14813.187   0.57973296    -14813.14   0.63272884   -14813.173   0.68555225   -14813.642   0.73820296   -14814.676   0.79075777   -14816.196   0.84310389   -14817.812   0.89541174   -14819.499   0.94761211    -14820.72            1   -14820.992 
300  0.061623295 0.0093746029  0.015788831  0.015780945   0.11305515    7.8491114    7.8491203    8.7908822            0   -14820.993  0.052589715   -14820.733   0.10513304   -14819.509   0.15765698   -14817.805   0.21017536   -14816.177   0.26272704   -14814.656   0.31533217   -14813.627   0.36801609   -14813.173   0.42077667   -14813.144   0.47359854   -14813.189   0.52643446   -14813.189   0.57925544   -14813.144   0.63201429   -14813.174   0.68469563   -14813.627   0.73729742   -14814.656   0.78984509   -14816.177   0.84235882   -14817.805   0.89487779   -14819.509   0.94741578   -14820.733            1   -14820.993 
400  0.020611616 0.0048273246 0.0076552393 0.0076518393   0.10816603    7.8484598    7.8484423    8.8351799            0   -14820.993  0.052629439   -14820.741   0.10523073   -14819.521   0.15781725   -14817.808   0.21039967   -14816.173   0.26298811   -14814.647   0.31559714   -14813.618   0.36824175   -14813.173   0.42092589   -14813.145   0.47364584   -14813.189   0.52637829   -14813.189   0.57909757   -14813.145   0.63178041   -14813.173   0.68442317   -14813.619   0.73702979   -14814.647    0.7896153   -14816.174   0.84219436   -14817.808    0.8947772   -14819.521   0.94737457   -14820.741            1   -14820.993 
500  0.019877893 0.0026380485 0.0037838114 0.0037816517   0.10693433    7.8478231    7.8478677    8.8594573            0   -14820.993  0.052622353   -14820.745   0.10523404   -14819.528   0.15783692    -14817.81   0.21043887   -14816.172   0.26304623   -14814.642   0.31566678   -14813.614   0.36830859   -14813.172   0.42097394   -14813.145   0.47366073   -14813.189   0.52635636   -14813.189   0.57904265   -14813.145   0.63170708   -14813.172   0.68434758   -14813.614   0.73696643   -14814.642   0.78957171   -14816.172   0.84217129    -14817.81   0.89477157   -14819.528   0.94738048   -14820.745            1   -14820.993 
600  0.015532135 0.0016961619 0.0021345465 0.0021337236    0.1067809     7.847658    7.8476667    8.8699109            0   -14820.993  0.052618059   -14820.746   0.10523099    -14819.53   0.15784073   -14817.811   0.21045209   -14816.171   0.26306854   -14814.639   0.31569524   -14813.612   0.36833676   -14813.172   0.42099446   -14813.145   0.47366687    -14813.19   0.52634622    -14813.19   0.57901829   -14813.145    0.6316753   -14813.172   0.68431579   -14813.612   0.73694116   -14814.639   0.78955598   -14816.171   0.84216555   -14817.811    0.8947733    -14819.53   0.94738412   -14820.746            1   -14820.993 
700 0.0034801738 0.0011453451 0.0012966002 0.0012965254   0.10684376    7.8473588    7.8474153     8.875707            0   -14820.993  0.052617218   -14820.747   0.10523229   -14819.531   0.15784697    -14817.81   0.21046404   -14816.169   0.26308598   -14814.637   0.31571593    -14813.61   0.36835656   -14813.171   0.42100861   -14813.146   0.47367113   -14813.189   0.52633932   -14813.189   0.57900154   -14813.146   0.63165302   -14813.171   0.68429284    -14813.61   0.73692174   -14814.637    0.7895424   -14816.169   0.84215802   -14817.811   0.89477112   -14819.531   0.94738451   -14820.747            1   -14820.993 
800  0.006416614 0.00056414248 0.00049337713 0.0004934296   0.10695628    7.8474031    7.8473902    8.8814091            0   -14820.993   0.05261868   -14820.748   0.10523761   -14819.531   0.15785865   -14817.809   0.21048219   -14816.167   0.26310956   -14814.634   0.31574203   -14813.608   0.36838051   -14813.171   0.42102519   -14813.146    0.4736759   -14813.189   0.52633076   -14813.189   0.57898134   -14813.146   0.63162573   -14813.171   0.68426377   -14813.608   0.73689559   -14814.634   0.78952211   -14816.167   0.84214469   -14817.809   0.89476468   -14819.531   0.94738248   -14820.748            1   -14820.993 
900 0.0099117306 0.00076744298 0.00028336482 0.00028245575   0.10703672    7.8473379    7.8473579     8.882786            0   -14820.993  0.052619613   -14820.747   0.10524021    -14819.53    0.1578632   -14817.808   0.21048862   -14816.166   0.26311744   -14814.633   0.31575039   -14813.607   0.36838806   -14813.171   0.42103049   -14813.146   0.47367742   -14813.189   0.52632786   -14813.189   0.57897469   -14813.146   0.63161685   -14813.171   0.68425411   -14813.607   0.73688652   -14814.633   0.78951468   -14816.166   0.84213937   -14817.808   0.89476152    -14819.53   0.94738129   -14820.747            1   -14820.993 
1000 0.0019985288 0.00026669467 0.0001401562 0.00013891295    0.1071424    7.8472403    7.8471835    8.8838526            0   -14820.993  0.052620626   -14820.747   0.10524291   -14819.529   0.15786739   -14817.807   0.21049432   -14816.164   0.26312413   -14814.632   0.31575729   -14813.607   0.36839404   -14813.171   0.42103442   -14813.146   0.47367843    -14813.19   0.52632542    -14813.19   0.57896931   -14813.146   0.63160947   -14813.171   0.68424594   -14813.607   0.73687873   -14814.632   0.78950806   -14816.164   0.84213446   -14817.807   0.89475833   -14819.529   0.94738002   -14820.747            1   -14820.993 
Climbing replica = 12
Step MaxReplicaForce MaxAtomForce GradV0 GradV1 GradVc EBF EBR RDT RD1 PE1 RD2 PE2 ... RDN PEN
1000    0.1071424  0.069177687 0.0001401562 0.00013891295    0.1071424    7.8472403    7.8471835    8.8838526            0   -14820.993  0.052620626   -14820.747   0.10524291   -14819.529   0.15786739   -14817.807   0.21049432   -14816.164   0.26312413   -14814.632   0.31575729   -14813.607   0.36839404   -14813.171   0.42103442   -14813.146   0.47367843    -14813.19   0.52632542    -14813.19   0.57896931   -14813.146   0.63160947   -14813.171   0.68424594   -14813.607   0.73687873   -14814.632   0.78950806   -14816.164   0.84213446   -14817.807   0.89475833   -14819.529   0.94738002   -14820.747            1   -14820.993 
1100   0.05458175  0.045543216 6.1376445e-05 6.2091301e-05   0.05458175    7.8586617    7.8586499    8.8980792            0   -14820.993  0.052617071   -14820.744    0.1053325   -14819.515   0.15818221   -14817.781   0.21122465   -14816.123     0.264534   -14814.575    0.3181891    -14813.56   0.37225305   -14813.157   0.42676898   -14813.153    0.4817754   -14813.192    0.5373185   -14813.182   0.59341292   -14813.134   0.64257957   -14813.219   0.69230273   -14813.738   0.74258574   -14814.798   0.79339419   -14816.298   0.84463383   -14817.902   0.89622115   -14819.586   0.94805043   -14820.761            1   -14820.993 
1200    0.1585659  0.028543844 5.0655874e-05 5.1887997e-05  0.029402239    7.8601251    7.8601677    8.8979295            0   -14820.993  0.053139223   -14820.733   0.10635974   -14819.474   0.15971512   -14817.721   0.21327797   -14816.048    0.2671051   -14814.503   0.32124631   -14813.515   0.37572842   -14813.149   0.43054506   -14813.157    0.4856903   -14813.193   0.54117499   -14813.179   0.59697522   -14813.133   0.64628175   -14813.242   0.69592273   -14813.806   0.74591726   -14814.901   0.79625784   -14816.402   0.84689221   -14817.993   0.89777389   -14819.647   0.94883341   -14820.776            1   -14820.993 
1300   0.13382536   0.01700102 5.7983706e-05 5.8326695e-05  0.012420033    7.8603641    7.8603674    8.8979844            0   -14820.993  0.053767717   -14820.722   0.10758312   -14819.429   0.16150299   -14817.654    0.2155603    -14815.97   0.26979428   -14814.433   0.32423151   -14813.476   0.37887671   -14813.144   0.43371136    -14813.16   0.48871339   -14813.194   0.54387437   -14813.177   0.59916672   -14813.133   0.64877067    -14813.26   0.69851856   -14813.855   0.74843047    -14814.98   0.79850846   -14816.481   0.84873478   -14818.066   0.89907893   -14819.696   0.94951952   -14820.788            1   -14820.993 
1400  0.011546402  0.009972722 2.4107154e-05 2.4402307e-05 0.0062321991     7.860479    7.8605117    8.8967067            0   -14820.993  0.054141271   -14820.715   0.10831325   -14819.404   0.16254446   -14817.619   0.21685975   -14815.929   0.27128063   -14814.399   0.32582183   -14813.458   0.38048256   -14813.142   0.43524727   -14813.161    0.4900982   -14813.195   0.54502591   -14813.176   0.60001163   -14813.133   0.64978982   -14813.267   0.69963054   -14813.874   0.74954469   -14815.011   0.79953423   -14816.512   0.84958988   -14818.094   0.89969927   -14819.714   0.94984273   -14820.791            1   -14820.993 
1500  0.010724266 0.0041927697 1.6240775e-05 1.535028e-05 0.0027947717    7.8603282    7.8603264    8.8951823            0   -14820.993  0.054424053   -14820.711   0.10886034   -14819.387   0.16332204   -14817.594   0.21782044   -14815.901   0.27236469   -14814.376   0.32696032   -14813.446   0.38160626   -14813.141   0.43629368   -14813.162   0.49101366   -14813.195   0.54576018   -14813.175    0.6005238   -14813.133    0.6504032    -14813.27   0.70029955   -14813.884   0.75021572   -14815.026   0.80015136   -14816.527   0.85010313   -14818.107   0.90006655   -14819.721    0.9500343   -14820.792            1   -14820.993 
1600  0.002535866 0.0020945028 1.867017e-05 1.888611e-05 0.0016811019    7.8603434    7.8603428    8.8945218            0   -14820.993   0.05452639    -14820.71    0.1090581   -14819.382   0.16360202   -14817.586   0.21816415   -14815.892   0.27274921   -14814.368   0.32735986   -14813.443   0.38199549    -14813.14   0.43665106   -14813.162    0.4913219   -14813.195   0.54600428   -14813.175   0.60069278   -14813.133    0.6505921   -14813.271   0.70049706   -14813.886   0.75040811   -14815.029   0.80032443    -14816.53   0.85024428   -14818.109   0.90016542   -14819.722   0.95008486   -14820.791            1   -14820.993 
1700 0.0017552133 0.00063740094 2.7025479e-05 2.6566738e-05 0.00080764735    7.8603508    7.8603735    8.8940683            0   -14820.993  0.054597474   -14820.709   0.10919587   -14819.379   0.16379743   -14817.581   0.21840411   -14815.886   0.27301734   -14814.363   0.32763809    -14813.44   0.38226621    -14813.14   0.43690014   -14813.162   0.49153839   -14813.195   0.54617933   -14813.175   0.60082038   -14813.133   0.65072165   -14813.271   0.70062302   -14813.887   0.75052404   -14815.029   0.80042398    -14816.53   0.85032215   -14818.109   0.90021801    -14819.72    0.9501107   -14820.791            1   -14820.993 
1800 0.0075846266 0.00058774307 3.6917133e-05 3.3580527e-05 0.00035577954    7.8602708    7.8603099    8.8940453            0   -14820.993  0.054619829   -14820.709   0.10923968   -14819.378   0.16386004   -14817.579   0.21848153   -14815.884   0.27310462   -14814.362   0.32772973   -14813.439   0.38235698    -14813.14   0.43698614   -14813.163   0.49161705   -14813.195   0.54624883   -14813.175   0.60087965   -14813.133   0.65077395   -14813.271   0.70066765   -14813.886   0.75056038   -14815.029   0.80045172   -14816.529   0.85034153   -14818.107   0.90022936   -14819.719   0.95011571    -14820.79            1   -14820.993 
1900 0.0011416276 0.00013421114 3.5955144e-05 3.6300163e-05 0.00019226538    7.8603164    7.8603089    8.8941855            0   -14820.993  0.054623779   -14820.709   0.10924757   -14819.378   0.16387167   -14817.579    0.2184964   -14815.883   0.27312208   -14814.362   0.32774902   -14813.439   0.38237745    -14813.14   0.43700737   -14813.163   0.49163891   -14813.195   0.54627125   -14813.175   0.60090281   -14813.133   0.65079287   -14813.271   0.70068247   -14813.886   0.75057135   -14815.029   0.80045929   -14816.529   0.85034617   -14818.107   0.90023192   -14819.719   0.95011648    -14820.79            1   -14820.993 
2000  0.002002211 0.00016155738 4.6443355e-05 4.816565e-05 0.00010085215    7.8602861    7.8602921    8.8944722            0   -14820.993  0.054625689   -14820.709   0.10925149   -14819.378   0.16387765   -14817.579   0.21850443   -14815.883   0.27313212   -14814.361   0.32776105   -14813.439   0.38239141    -14813.14   0.43702342   -14813.163   0.49165722   -14813.195   0.54629216   -14813.175   0.60092645   -14813.133   0.65081216   -14813.271   0.70069761   -14813.886   0.75058268   -14815.028   0.80046725   -14816.528   0.85035127   -14818.106   0.90023471   -14819.718   0.95011763    -14820.79            1   -14820.993 
