479
Atoms. Timestep: 0
1 1.314 19.0766 3.398
1 5.609 16.5976 3.398
1 9.903 14.1176 3.398
1 14.198 11.6386 3.398
1 1.314 4.2 3.398
1 5.609 1.721 3.398
1 9.903 19.0766 3.398
1 14.198 16.5976 3.398
1 1.314 9.159 3.398
1 5.609 6.68 3.398
1 9.903 4.2 3.398
1 14.198 1.721 3.398
1 1.314 14.118 3.398
1 5.609 11.639 3.398
1 9.903 9.159 3.398
1 14.198 6.68 3.398
1 0 1.517 3.398
1 4.295 18.8736 3.398
1 8.589 16.3946 3.398
1 12.884 13.9146 3.398
1 0 6.476 3.398
1 4.295 3.997 3.398
1 8.589 1.517 3.398
1 12.884 18.8736 3.398
1 0 11.435 3.398
1 4.295 8.956 3.398
1 8.589 6.476 3.398
1 12.884 3.997 3.398
1 0 16.394 3.398
1 4.295 13.915 3.398
1 8.589 11.435 3.398
1 12.884 8.956 3.398
1 2.98 1.721 3.398
1 7.275 19.0766 3.398
1 11.569 16.5976 3.398
1 15.864 14.1176 3.398
1 2.98 6.68 3.398
1 7.275 4.2 3.398
1 11.569 1.721 3.398
1 15.864 19.0766 3.398
1 2.98 11.639 3.398
1 7.275 9.159 3.398
1 11.569 6.68 3.398
1 15.864 4.2 3.398
1 2.98 16.597 3.398
1 7.275 14.118 3.398
1 11.569 11.639 3.398
1 15.864 9.159 3.398
1 2.98 18.1146 10.195
1 7.275 15.6356 10.195
1 11.569 13.1556 10.195
1 15.864 10.6766 10.195
1 2.98 3.238 10.195
1 7.275 0.759 10.195
1 11.569 18.1146 10.195
1 15.864 15.6356 10.195
1 2.98 8.197 10.195
1 7.275 5.718 10.195
1 11.569 3.238 10.195
1 15.864 0.759 10.195
1 2.98 13.156 10.195
1 7.275 10.677 10.195
1 11.569 8.197 10.195
1 15.864 5.718 10.195
1 0 3.441 10.195
1 4.295 0.962 10.195
1 8.589 18.3186 10.195
1 12.884 15.8386 10.195
1 0 8.4 10.195
1 4.295 5.921 10.195
1 8.589 3.441 10.195
1 12.884 0.962 10.195
1 0 13.359 10.195
1 4.295 10.88 10.195
1 8.589 8.4 10.195
1 12.884 5.921 10.195
1 0 18.318 10.195
1 4.295 15.839 10.195
1 8.589 13.359 10.195
1 12.884 10.88 10.195
1 1.314 0.759 10.195
1 5.609 18.1146 10.195
1 9.903 15.6356 10.195
1 14.198 13.1556 10.195
1 1.314 5.718 10.195
1 5.609 3.238 10.195
1 9.903 0.759 10.195
1 14.198 18.1146 10.195
1 1.314 10.677 10.195
1 5.609 8.197 10.195
1 9.903 5.718 10.195
1 14.198 3.238 10.195
1 1.314 15.635 10.195
1 5.609 13.156 10.195
1 9.903 10.677 10.195
1 14.198 8.197 10.195
1 4.177 19.0766 7.929
1 8.472 16.5976 7.929
1 12.766 14.1176 7.929
1 17.061 11.6386 7.929
1 4.177 4.2 7.929
1 8.472 1.721 7.929
1 12.766 19.0766 7.929
1 17.061 16.5976 7.929
1 4.177 9.159 7.929
1 8.472 6.68 7.929
1 12.766 4.2 7.929
1 17.061 1.721 7.929
1 4.177 14.118 7.929
1 8.472 11.639 7.929
1 12.766 9.159 7.929
1 17.061 6.68 7.929
1 2.863 1.517 7.929
1 7.158 18.8736 7.929
1 11.452 16.3946 7.929
1 15.747 13.9146 7.929
1 2.863 6.476 7.929
1 7.158 3.997 7.929
1 11.452 1.517 7.929
1 15.747 18.8736 7.929
1 2.863 11.435 7.929
1 7.158 8.956 7.929
1 11.452 6.476 7.929
1 15.747 3.997 7.929
1 2.863 16.394 7.929
1 7.158 13.915 7.929
1 11.452 11.435 7.929
1 15.747 8.956 7.929
1 1.549 19.0766 7.929
1 5.843 16.5976 7.929
1 10.138 14.1176 7.929
1 14.432 11.6386 7.929
1 1.549 4.2 7.929
1 5.843 1.721 7.929
1 10.138 19.0766 7.929
1 14.432 16.5976 7.929
1 1.549 9.159 7.929
1 5.843 6.68 7.929
1 10.138 4.2 7.929
1 14.432 1.721 7.929
1 1.549 14.118 7.929
1 5.843 11.639 7.929
1 10.138 9.159 7.929
1 14.432 6.68 7.929
1 1.549 0.759 1.133
1 5.843 18.1146 1.133
1 10.138 15.6356 1.133
1 14.432 13.1556 1.133
1 1.549 5.718 1.133
1 5.843 3.238 1.133
1 10.138 0.759 1.133
1 14.432 18.1146 1.133
1 1.549 10.677 1.133
1 5.843 8.197 1.133
1 10.138 5.718 1.133
1 14.432 3.238 1.133
1 1.549 15.635 1.133
1 5.843 13.156 1.133
1 10.138 10.677 1.133
1 14.432 8.197 1.133
1 2.863 18.3186 1.133
1 7.158 15.8386 1.133
1 11.452 13.3596 1.133
1 15.747 10.8796 1.133
1 2.863 3.441 1.133
1 7.158 0.962 1.133
1 11.452 18.3186 1.133
1 15.747 15.8386 1.133
1 2.863 8.4 1.133
1 7.158 5.921 1.133
1 11.452 3.441 1.133
1 15.747 0.962 1.133
1 2.863 13.359 1.133
1 7.158 10.88 1.133
1 11.452 8.4 1.133
1 15.747 5.921 1.133
1 4.177 0.759 1.133
1 8.472 18.1146 1.133
1 12.766 15.6356 1.133
1 17.061 13.1556 1.133
1 4.177 5.718 1.133
1 8.472 3.238 1.133
1 12.766 0.759 1.133
1 17.061 18.1146 1.133
1 4.177 10.677 1.133
1 8.472 8.197 1.133
1 12.766 5.718 1.133
1 17.061 3.238 1.133
1 4.177 15.635 1.133
1 8.472 13.156 1.133
1 12.766 10.677 1.133
1 17.061 8.197 1.133
1 2.746 1.721 12.46
1 7.04 19.0766 12.46
1 11.335 16.5976 12.46
1 15.629 14.1176 12.46
1 2.746 6.68 12.46
1 7.04 4.2 12.46
1 11.335 1.721 12.46
1 15.629 19.0766 12.46
1 2.746 11.639 12.46
1 7.04 9.159 12.46
1 11.335 6.68 12.46
1 15.629 4.2 12.46
1 2.746 16.597 12.46
1 7.04 14.118 12.46
1 11.335 11.639 12.46
1 15.629 9.159 12.46
1 1.432 3.997 12.46
1 5.726 1.517 12.46
1 10.021 18.8736 12.46
1 14.315 16.3946 12.46
1 1.432 8.956 12.46
1 5.726 6.476 12.46
1 10.021 3.997 12.46
1 14.315 1.517 12.46
1 1.432 13.915 12.46
1 5.726 11.435 12.46
1 10.021 8.956 12.46
1 14.315 6.476 12.46
1 1.432 18.874 12.46
1 5.726 16.394 12.46
1 10.021 13.915 12.46
1 14.315 11.435 12.46
1 0.117 1.721 12.46
1 4.412 19.0766 12.46
1 8.706 16.5976 12.46
1 13.001 14.1176 12.46
1 0.117 6.68 12.46
1 4.412 4.2 12.46
1 8.706 1.721 12.46
1 13.001 19.0766 12.46
1 0.117 11.639 12.46
1 4.412 9.159 12.46
1 8.706 6.68 12.46
1 13.001 4.2 12.46
1 0.117 16.597 12.46
1 4.412 14.118 12.46
1 8.706 11.639 12.46
1 13.001 9.159 12.46
1 0.117 3.238 5.664
1 4.412 0.759 5.664
1 8.706 18.1146 5.664
1 13.001 15.6356 5.664
1 0.117 8.197 5.664
1 4.412 5.718 5.664
1 8.706 3.238 5.664
1 13.001 0.759 5.664
1 0.117 13.156 5.664
1 4.412 10.677 5.664
1 8.706 8.197 5.664
1 13.001 5.718 5.664
1 0.117 18.115 5.664
1 4.412 15.635 5.664
1 8.706 13.156 5.664
1 13.001 10.677 5.664
1 1.432 0.962 5.664
1 5.726 18.3186 5.664
1 10.021 15.8386 5.664
1 14.315 13.3596 5.664
1 1.432 5.921 5.664
1 5.726 3.441 5.664
1 10.021 0.962 5.664
1 14.315 18.3186 5.664
1 1.432 10.88 5.664
1 5.726 8.4 5.664
1 10.021 5.921 5.664
1 14.315 3.441 5.664
1 1.432 15.839 5.664
1 5.726 13.359 5.664
1 10.021 10.88 5.664
1 14.315 8.4 5.664
1 2.746 3.238 5.664
1 7.04 0.759 5.664
1 11.335 18.1146 5.664
1 15.629 15.6356 5.664
1 2.746 8.197 5.664
1 7.04 5.718 5.664
1 11.335 3.238 5.664
1 15.629 0.759 5.664
1 2.746 13.156 5.664
1 7.04 10.677 5.664
1 11.335 8.197 5.664
1 15.629 5.718 5.664
1 2.746 18.115 5.664
1 7.04 15.635 5.664
1 11.335 13.156 5.664
1 15.629 10.677 5.664
2 0 0 4.724
2 4.295 17.3566 4.724
2 8.589 14.8766 4.724
2 12.884 12.3976 4.724
2 0 4.959 4.724
2 4.295 2.479 4.724
2 8.589 0 4.724
2 12.884 17.3566 4.724
2 0 9.918 4.724
2 4.295 7.438 4.724
2 8.589 4.959 4.724
2 12.884 2.479 4.724
2 0 14.877 4.724
2 4.295 12.397 4.724
2 8.589 9.918 4.724
2 12.884 7.438 4.724
2 0 0 2.073
2 4.295 17.3566 2.073
2 8.589 14.8766 2.073
2 12.884 12.3976 2.073
2 0 4.959 2.073
2 4.295 2.479 2.073
2 8.589 0 2.073
2 12.884 17.3566 2.073
2 0 9.918 2.073
2 4.295 7.438 2.073
2 7.98626 4.959 2.11353
2 12.884 2.479 2.073
2 0 14.877 2.073
2 4.295 12.397 2.073
2 8.589 9.918 2.073
2 12.884 7.438 2.073
2 0 0 8.869
2 4.295 17.3566 8.869
2 8.589 14.8766 8.869
2 12.884 12.3976 8.869
2 0 4.959 8.869
2 4.295 2.479 8.869
2 8.589 0 8.869
2 12.884 17.3566 8.869
2 0 9.918 8.869
2 4.295 7.438 8.869
2 8.589 4.959 8.869
2 12.884 2.479 8.869
2 0 14.877 8.869
2 4.295 12.397 8.869
2 8.589 9.918 8.869
2 12.884 7.438 8.869
2 0 0 11.52
2 4.295 17.3566 11.52
2 8.589 14.8766 11.52
2 12.884 12.3976 11.52
2 0 4.959 11.52
2 4.295 2.479 11.52
2 8.589 0 11.52
2 12.884 17.3566 11.52
2 0 9.918 11.52
2 4.295 7.438 11.52
2 8.589 4.959 11.52
2 12.884 2.479 11.52
2 0 14.877 11.52
2 4.295 12.397 11.52
2 8.589 9.918 11.52
2 12.884 7.438 11.52
2 2.863 0 9.255
2 7.158 17.3566 9.255
2 11.452 14.8766 9.255
2 15.747 12.3976 9.255
2 2.863 4.959 9.255
2 7.158 2.479 9.255
2 11.452 0 9.255
2 15.747 17.3566 9.255
2 2.863 9.918 9.255
2 7.158 7.438 9.255
2 11.452 4.959 9.255
2 15.747 2.479 9.255
2 2.863 14.877 9.255
2 7.158 12.397 9.255
2 11.452 9.918 9.255
2 15.747 7.438 9.255
2 2.863 0 6.604
2 7.158 17.3566 6.604
2 11.452 14.8766 6.604
2 15.747 12.3976 6.604
2 2.863 4.959 6.604
2 7.158 2.479 6.604
2 11.452 0 6.604
2 15.747 17.3566 6.604
2 2.863 9.918 6.604
2 7.158 7.438 6.604
2 11.452 4.959 6.604
2 15.747 2.479 6.604
2 2.863 14.877 6.604
2 7.158 12.397 6.604
2 11.452 9.918 6.604
2 15.747 7.438 6.604
2 2.863 0 13.401
2 7.158 17.3566 13.401
2 11.452 14.8766 13.401
2 15.747 12.3976 13.401
2 2.863 4.959 13.401
2 7.158 2.479 13.401
2 11.452 0 13.401
2 15.747 17.3566 13.401
2 2.863 9.918 13.401
2 7.158 7.438 13.401
2 11.452 4.959 13.401
2 15.747 2.479 13.401
2 2.863 14.877 13.401
2 7.158 12.397 13.401
2 11.452 9.918 13.401
2 15.747 7.438 13.401
2 2.863 0 2.458
2 7.158 17.3566 2.458
2 11.452 14.8766 2.458
2 15.747 12.3976 2.458
2 7.158 2.479 2.458
2 11.452 0 2.458
2 15.747 17.3566 2.458
2 2.863 9.918 2.458
2 7.158 7.438 2.458
2 11.452 4.959 2.458
2 15.747 2.479 2.458
2 2.863 14.877 2.458
2 7.158 12.397 2.458
2 11.452 9.918 2.458
2 15.747 7.438 2.458
2 1.432 2.479 0.193
2 5.726 0 0.193
2 10.021 17.3566 0.193
2 14.315 14.8766 0.193
2 1.432 7.438 0.193
2 5.726 4.959 0.193
2 10.021 2.479 0.193
2 14.315 0 0.193
2 1.432 12.397 0.193
2 5.726 9.918 0.193
2 10.021 7.438 0.193
2 14.315 4.959 0.193
2 1.432 17.356 0.193
2 5.726 14.877 0.193
2 10.021 12.397 0.193
2 14.315 9.918 0.193
2 1.432 2.479 11.135
2 5.726 0 11.135
2 10.021 17.3566 11.135
2 14.315 14.8766 11.135
2 1.432 7.438 11.135
2 5.726 4.959 11.135
2 10.021 2.479 11.135
2 14.315 0 11.135
2 1.432 12.397 11.135
2 5.726 9.918 11.135
2 10.021 7.438 11.135
2 14.315 4.959 11.135
2 1.432 17.356 11.135
2 5.726 14.877 11.135
2 10.021 12.397 11.135
2 14.315 9.918 11.135
2 1.432 2.479 4.338
2 5.726 0 4.338
2 10.021 17.3566 4.338
2 14.315 14.8766 4.338
2 1.432 7.438 4.338
2 5.726 4.959 4.338
2 10.021 2.479 4.338
2 14.315 0 4.338
2 1.432 12.397 4.338
2 5.726 9.918 4.338
2 10.021 7.438 4.338
2 14.315 4.959 4.338
2 1.432 17.356 4.338
2 5.726 14.877 4.338
2 10.021 12.397 4.338
2 14.315 9.918 4.338
2 1.432 2.479 6.989
2 5.726 0 6.989
2 10.021 17.3566 6.989
2 14.315 14.8766 6.989
2 1.432 7.438 6.989
2 5.726 4.959 6.989
2 10.021 2.479 6.989
2 14.315 0 6.989
2 1.432 12.397 6.989
2 5.726 9.918 6.989
2 10.021 7.438 6.989
2 14.315 4.959 6.989
2 1.432 17.356 6.989
2 5.726 14.877 6.989
2 10.021 12.397 6.989
2 14.315 9.918 6.989
