LAMMPS (28 Jun 2014)
Processor partition = 16
Reading data file ...
  orthogonal box = (0 0 0) to (17.1781 19.8356 13.5931)
  1 by 1 by 1 MPI processor grid
  reading atoms ...
  479 atoms
288 atoms in group oxygen
191 atoms in group chromium
WARNING: Resetting reneighboring criteria during minimization (../min.cpp:168)
PPPM initialization ...
WARNING: System is not charge neutral, net charge = -3 (../kspace.cpp:278)
  G vector (1/distance) = 0.315056
  grid = 18 18 15
  stencil order = 5
  estimated absolute RMS force accuracy = 0.00121169
  estimated relative force accuracy = 8.41472e-05
  using double precision FFTs
  3d grid and FFT values/proc = 13750 4860
Setting up minimization ...
Memory usage per processor = 4.77536 Mbytes
Step PotEng Pxx Pyy Pzz Pxy Pxz Pyz Lx Ly Lz Temp 
       0   -14727.782   -139833.08   -127112.74    -25599.62   -705.39722    2563.0571   -4532.3341      17.1781      19.8356     13.59308            0 
     100   -14817.793   -78968.044   -78286.874   -172543.24    314.67922   -551.56139   -907.99641      17.1781      19.8356     13.59308   0.49123592 
     200   -14817.812    -78816.76   -78108.416    -171548.8     262.3259   -408.69215   -940.74915      17.1781      19.8356     13.59308 0.0008774439 
     300   -14817.805   -78797.035   -78096.082    -171484.5    249.87131   -395.28002   -948.53128      17.1781      19.8356     13.59308 0.0027379947 
     400   -14817.808   -78793.917   -78097.816   -171464.25      246.003   -386.12136   -950.85382      17.1781      19.8356     13.59308 0.00013201495 
     500    -14817.81   -78795.759   -78098.468   -171459.28    243.88248   -381.32472   -951.63211      17.1781      19.8356     13.59308 8.2721712e-05 
     600   -14817.811    -78796.46   -78098.842   -171456.95    243.79529   -379.17951   -952.47287      17.1781      19.8356     13.59308 5.7483701e-05 
     700   -14817.811   -78795.888   -78097.975   -171454.16    243.45592   -378.00541   -953.27497      17.1781      19.8356     13.59308 1.1007519e-06 
     800   -14817.809    -78794.55   -78096.206   -171449.32    242.88964   -376.89659   -954.70419      17.1781      19.8356     13.59308 2.3196552e-06 
     900   -14817.808   -78793.665   -78095.065   -171447.13    242.75517   -376.52246   -955.19352      17.1781      19.8356     13.59308 6.036857e-06 
    1000   -14817.807   -78792.732   -78093.818   -171444.78    242.56496   -376.03357   -955.63006      17.1781      19.8356     13.59308 6.1971362e-07 
Loop time of 53.593 on 1 procs for 1000 steps with 479 atoms

Minimization stats:
  Stopping criterion = max iterations
  Energy initial, next-to-last, final = 
        -14727.7820371     -14817.8069731     -14817.8069769
  Force two-norm initial, final = 92.1128 0.00103578
  Force max component initial, final = 14.2811 0.000163688
  Final line search alpha, max atom move = 0 0
  Iterations, force evaluations = 1000 1000

Pair  time (%) = 23.1792 (43.2505)
Kspce time (%) = 3.64096 (6.79371)
Neigh time (%) = 0 (0)
Comm  time (%) = 0.0794001 (0.148154)
Outpt time (%) = 0.000317335 (0.00059212)
Other time (%) = 26.6931 (49.8071)

Nlocal:    479 ave 479 max 479 min
Histogram: 1 0 0 0 0 0 0 0 0 0
Nghost:    6473 ave 6473 max 6473 min
Histogram: 1 0 0 0 0 0 0 0 0 0
Neighs:    179004 ave 179004 max 179004 min
Histogram: 1 0 0 0 0 0 0 0 0 0

Total # of neighbors = 179004
Ave neighs/atom = 373.704
Neighbor list builds = 0
Dangerous builds = 0
WARNING: Resetting reneighboring criteria during minimization (../min.cpp:168)
Setting up minimization ...
Memory usage per processor = 4.77536 Mbytes
Step PotEng Pxx Pyy Pzz Pxy Pxz Pyz Lx Ly Lz Temp 
    1000   -14817.807   -78792.732   -78093.818   -171444.78    242.56496   -376.03357   -955.63006      17.1781      19.8356     13.59308            0 
    1100   -14817.902   -78877.903   -78200.549   -171615.44    247.25206    -376.6213   -913.49017      17.1781      19.8356     13.59308 0.00019272455 
    1200   -14817.993   -78960.771   -78305.467   -171784.64    252.75742    -377.6745    -875.3201      17.1781      19.8356     13.59308 0.0018643318 
    1300   -14818.066   -79026.257   -78386.241   -171921.25    255.31199   -377.89974   -843.93037      17.1781      19.8356     13.59308 0.0009341343 
    1400   -14818.094   -79054.955   -78420.249   -171978.64    255.80464   -378.01235   -831.36738      17.1781      19.8356     13.59308 1.082867e-05 
    1500   -14818.107   -79067.185   -78435.294   -172005.59    256.35059     -379.092   -825.50156      17.1781      19.8356     13.59308 3.1447297e-07 
    1600   -14818.109   -79068.931   -78437.546   -172010.11    256.97216   -379.66019   -824.50502      17.1781      19.8356     13.59308 1.7795776e-06 
    1700   -14818.109   -79068.488   -78437.296   -172010.66    257.02843   -380.32929   -824.15228      17.1781      19.8356     13.59308 5.4323484e-06 
    1800   -14818.107   -79067.419   -78436.181   -172009.02    256.93597   -380.55724   -824.41271      17.1781      19.8356     13.59308 1.9376312e-08 
    1900   -14818.107   -79066.918   -78435.565   -172008.12    256.92016    -380.6442   -824.58864      17.1781      19.8356     13.59308 1.6834519e-07 
    2000   -14818.106   -79066.538   -78435.109   -172007.45    256.90601   -380.71354    -824.7456      17.1781      19.8356     13.59308 5.6512021e-08 
Loop time of 53.5499 on 1 procs for 1000 steps with 479 atoms

Minimization stats:
  Stopping criterion = max iterations
  Energy initial, next-to-last, final = 
        -14817.8069769     -14818.1064428     -14818.1064583
  Force two-norm initial, final = 0.00103578 0.000281924
  Force max component initial, final = 0.000163688 3.88207e-05
  Final line search alpha, max atom move = 0 0
  Iterations, force evaluations = 1000 1000

Pair  time (%) = 23.6552 (44.1741)
Kspce time (%) = 3.81796 (7.12974)
Neigh time (%) = 0 (0)
Comm  time (%) = 0.0711572 (0.13288)
Outpt time (%) = 0.000288486 (0.000538725)
Other time (%) = 26.0053 (48.5628)

Nlocal:    479 ave 479 max 479 min
Histogram: 1 0 0 0 0 0 0 0 0 0
Nghost:    6473 ave 6473 max 6473 min
Histogram: 1 0 0 0 0 0 0 0 0 0
Neighs:    180763 ave 180763 max 180763 min
Histogram: 1 0 0 0 0 0 0 0 0 0

Total # of neighbors = 180763
Ave neighs/atom = 377.376
Neighbor list builds = 0
Dangerous builds = 0
