

variable      mytemp equal  1600

# -------------------- FORCE FIELDS ----------------------
pair_style buck/coul/long 10.0 10.0

read_data	NPT_relaxed_1600.data
  orthogonal box = (0.13402 0.154754 0.141401) to (77.167 89.1054 81.4171)
  1 by 5 by 3 MPI processor grid
  reading atoms ...
  58365 atoms
  reading velocities ...
  58365 velocities

pair_coeff    * * 1e-30 1e-30 0.0
pair_coeff    1 2 1204.18 0.3165   0.0
pair_coeff    1 1 9547.96 0.21916  32.0

kspace_style    pppm 0.0001

## Define group
group oxygen type 1
35019 atoms in group oxygen
group chromium type 2
23346 atoms in group chromium


## --------------------- NVT  --------------------
compute allmsd all displace/atom

#dump          2 all custom 25000  dump/dump id type xu yu zu c_allmsd[1] c_allmsd[2] c_allmsd[3] c_allmsd[4]
#dump          1 all xyz 25000 xyz/all.xyz
#dump_modify   1 element O Cr



compute   Omsd oxygen msd com yes
compute   Crmsd chromium msd com yes
variable  OMSDX equal "c_Omsd[1]"
variable  OMSDY equal "c_Omsd[2]"
variable  OMSDZ equal "c_Omsd[3]"
variable  OMSDAll equal "c_Omsd[4]"

variable  CrMSDX equal "c_Crmsd[1]"
variable  CrMSDY equal "c_Crmsd[2]"
variable  CrMSDZ equal "c_Crmsd[3]"
variable  CrMSDAll equal "c_Crmsd[4]"

thermo          1000
thermo_style    custom step pe ke press lx ly lz temp c_Omsd[1]  c_Omsd[2]  c_Omsd[3]  c_Omsd[4]  c_Crmsd[1]  c_Crmsd[2]  c_Crmsd[3]  c_Crmsd[4]


fix          1 all print 100 "${OMSDX}   ${OMSDY}   ${OMSDZ}  ${OMSDAll}  ${CrMSDX}   ${CrMSDY}   ${CrMSDZ}  ${CrMSDAll}" file MSD1600.data screen no
fix          3 all nvt temp ${mytemp} ${mytemp} 0.01
fix          3 all nvt temp 1600 ${mytemp} 0.01
fix          3 all nvt temp 1600 1600 0.01

run      1000000
PPPM initialization ...
  G vector (1/distance) = 0.308944
  grid = 72 80 75
  stencil order = 5
  estimated absolute RMS force accuracy = 0.00178406
  estimated relative force accuracy = 0.000123896
  using double precision FFTs
  3d grid and FFT values/proc = 58144 28800
Memory usage per processor = 12.6298 Mbytes
Step PotEng KinEng Press Lx Ly Lz Temp Omsd[1] Omsd[2] Omsd[3] Omsd[4] Crmsd[1] Crmsd[2] Crmsd[3] Crmsd[4] 
       0   -1796557.2     12103.96    -1787.096    77.032961    88.950692    81.275698     1604.419 5.0825899e-29 2.111198e-29 5.1034946e-29 1.2297283e-28 5.0813644e-29            0 5.0962861e-29 1.0177651e-28 
    1000   -1796562.8    12083.314   -1912.8345    77.032961    88.950692    81.275698    1601.6823  0.031558954  0.029888549  0.041267751   0.10271525  0.025577531  0.024578442  0.033278191  0.083434164 
    2000   -1796568.7    12131.562   -1588.8441    77.032961    88.950692    81.275698    1608.0778  0.031259007  0.030595457  0.040849373   0.10270384  0.025215371  0.024512922   0.03172992  0.081458213 
    3000   -1796560.7    12064.462   -1654.7348    77.032961    88.950692    81.275698    1599.1834   0.03264752  0.030112825  0.042313331   0.10507368  0.025217178  0.023961498  0.032927353  0.082106028 
    4000   -1796582.3    12064.745   -1771.6788    77.032961    88.950692    81.275698    1599.2208  0.033232326  0.030496883  0.041700253   0.10542946   0.02611153  0.023806754  0.032227681  0.082145965 
    5000   -1796621.4     12079.47   -1563.7554    77.032961    88.950692    81.275698    1601.1728  0.031656342  0.031085848  0.041066429   0.10380862  0.024044731  0.024219074  0.030750709  0.079014514 
    6000   -1796623.5    12076.897   -2248.1276    77.032961    88.950692    81.275698    1600.8317  0.032510143  0.032090849  0.045748782   0.11034977  0.024610308  0.023764787  0.034456984  0.082832079 
    7000   -1796581.1     12041.58   -1795.7982    77.032961    88.950692    81.275698    1596.1504  0.033670882  0.031830719  0.042733301    0.1082349  0.024532585  0.023868731  0.031323854   0.07972517 
    8000   -1796543.4    12109.434   -1389.9027    77.032961    88.950692    81.275698    1605.1445   0.03504174  0.032748903  0.047665205   0.11545585  0.025377998  0.024640031  0.035646895  0.085664924 
    9000   -1796565.7    12061.065   -1432.9815    77.032961    88.950692    81.275698    1598.7331  0.034486931  0.033426073  0.044408237   0.11232124  0.024320899  0.024712374  0.031698811  0.080732084 
   10000   -1796554.9    11966.159   -1708.9067    77.032961    88.950692    81.275698     1586.153  0.034229213  0.032356283  0.045814914   0.11240041  0.024545243  0.023645435  0.032433786  0.080624463 
   11000   -1796510.6    12037.427   -1440.7117    77.032961    88.950692    81.275698    1595.5999  0.035479416  0.033040594  0.045519489    0.1140395  0.025641979  0.023757678  0.032580894  0.081980551 
   12000   -1796569.2    12051.124   -1726.4852    77.032961    88.950692    81.275698    1597.4154  0.033730985  0.033383736  0.044593414   0.11170814   0.02341229  0.024071784  0.031449229  0.078933302 
   13000   -1796505.6     12056.05   -1641.1595    77.032961    88.950692    81.275698    1598.0684   0.03534378   0.03303489  0.048422438   0.11680111  0.025133691  0.023831739  0.034905897  0.083871327 
   14000   -1796547.9    12054.499   -1285.0543    77.032961    88.950692    81.275698    1597.8628   0.03575804  0.033134317  0.045496149   0.11438851  0.024502345  0.023480113  0.030905442    0.0788879 
   15000   -1796557.5    12038.842   -1721.5133    77.032961    88.950692    81.275698    1595.7874  0.036045342  0.034122404   0.04757086   0.11773861  0.025397841  0.024187474  0.032885529  0.082470844 
   16000   -1796525.1    12022.074   -1222.5816    77.032961    88.950692    81.275698    1593.5648  0.035607825  0.034063473   0.04594764   0.11561894  0.024545106  0.024204926  0.031976933  0.080726966 
   17000     -1796618    12115.787   -1875.9231    77.032961    88.950692    81.275698    1605.9867  0.034801105  0.033692231  0.045615765    0.1141091  0.023329694  0.023209189  0.032023815  0.078562698 
   18000     -1796520    11982.737   -1719.4488    77.032961    88.950692    81.275698    1588.3505  0.036744485  0.034816103  0.047812271   0.11937286  0.025025868  0.024744041  0.032985141  0.082755051 
   19000     -1796550    11970.896   -2279.3488    77.032961    88.950692    81.275698     1586.781  0.035495617  0.034983492  0.046353373   0.11683248  0.024001689  0.023951207  0.031330605  0.079283501 
   20000   -1796577.7    12073.751   -1645.2565    77.032961    88.950692    81.275698    1600.4147  0.036178491  0.034271264  0.048786902   0.11923666  0.025149946  0.024131835  0.034120801  0.083402583 
   21000   -1796562.4    11981.665   -1947.6649    77.032961    88.950692    81.275698    1588.2084  0.035048389  0.034808497   0.04688518   0.11674207  0.024023458  0.024271522  0.032103134  0.080398115 
   22000   -1796557.3    12018.324   -2022.3774    77.032961    88.950692    81.275698    1593.0676  0.035494142  0.034474147  0.048842157   0.11881045  0.024370259  0.023860631  0.033932795  0.082163685 
   23000   -1796500.3    12016.623   -1033.2229    77.032961    88.950692    81.275698    1592.8422  0.036240124  0.035670199  0.046882521   0.11879284  0.024989965  0.024411253  0.032670306  0.082071524 
   24000   -1796548.9    12051.846   -1420.8303    77.032961    88.950692    81.275698    1597.5112  0.035661333  0.035671946  0.047537527   0.11887081  0.024248969  0.024342267  0.031970927  0.080562163 
   25000   -1796638.5    12100.517   -2027.3874    77.032961    88.950692    81.275698    1603.9626  0.037091998  0.036175167  0.050846839     0.124114  0.024573101  0.024440493  0.035151878  0.084165472 
   26000   -1796507.8    12085.926   -1514.2618    77.032961    88.950692    81.275698    1602.0285  0.037635141  0.035225992  0.048569668    0.1214308  0.025120385  0.023552782  0.032628455  0.081301622 
   27000   -1796609.6    12078.453   -1667.4617    77.032961    88.950692    81.275698     1601.038  0.036997913  0.035498975  0.049566791   0.12206368  0.024252161  0.023812217  0.034540772   0.08260515 
   28000   -1796562.1    12022.246   -2081.7091    77.032961    88.950692    81.275698    1593.5875  0.037391786  0.036887331  0.051353749   0.12563287  0.024377329  0.024479248  0.033880757  0.082737335 
   29000   -1796664.8    12068.023   -2321.2715    77.032961    88.950692    81.275698    1599.6554  0.037103524  0.037686103  0.051748576    0.1265382  0.024393552  0.024405974  0.034297779  0.083097304 
   30000     -1796562    12054.895   -2021.7813    77.032961    88.950692    81.275698    1597.9152  0.037850549  0.037123773  0.051109327   0.12608365  0.024853828  0.024410533  0.033201109  0.082465471 
   31000   -1796629.7     12039.02   -2387.6479    77.032961    88.950692    81.275698    1595.8109  0.037519351  0.036913648  0.052592434   0.12702543  0.024094789  0.024619198  0.035607344  0.084321331 
   32000   -1796590.7    12048.838   -2731.6579    77.032961    88.950692    81.275698    1597.1123  0.038778745  0.037454118  0.052007842    0.1282407  0.024977802  0.024924355  0.034980336  0.084882492 
   33000     -1796529    12078.739   -1845.8859    77.032961    88.950692    81.275698    1601.0759  0.039161125  0.036632414  0.053365747   0.12915929  0.025217349  0.023498152  0.034339669   0.08305517 
   34000   -1796563.3    12098.935   -1462.9363    77.032961    88.950692    81.275698    1603.7529  0.038895513  0.037801269  0.052822851   0.12951963  0.024750204  0.024682134  0.034509277  0.083941615 
   35000   -1796580.2    12036.266    -2250.146    77.032961    88.950692    81.275698    1595.4459  0.038925738  0.038604492  0.053192489   0.13072272  0.024147947  0.025379665   0.03523036  0.084757972 
   36000   -1796628.4    12015.484   -1918.6581    77.032961    88.950692    81.275698    1592.6913  0.039141154  0.036996678  0.052319838   0.12845767  0.024884395  0.024262547  0.034100777  0.083247719 
   37000   -1796586.8    12031.234   -2250.4376    77.032961    88.950692    81.275698    1594.7789  0.038855683  0.038191441  0.052224313   0.12927144  0.024196549  0.024917774  0.034315784  0.083430107 
   38000   -1796584.7    12145.396   -1575.1258    77.032961    88.950692    81.275698    1609.9114  0.040141046  0.037771477  0.052340612   0.13025314  0.025274734  0.024533498   0.03426168  0.084069912 
   39000   -1796508.2    12091.704   -1541.1937    77.032961    88.950692    81.275698    1602.7944  0.040900098  0.038511003  0.052214883   0.13162598  0.025407602  0.024875866  0.034562513   0.08484598 
   40000     -1796560    12111.546    -1746.699    77.032961    88.950692    81.275698    1605.4246  0.039639869  0.038374508  0.052879091   0.13089347  0.023754965  0.023865851  0.033385447  0.081006264 
   41000   -1796602.2    12076.839   -2124.4153    77.032961    88.950692    81.275698     1600.824  0.039777051  0.038985892  0.053851343   0.13261429  0.024840393  0.024231894  0.034057053  0.083129339 
   42000   -1796548.1    12090.505   -1428.4158    77.032961    88.950692    81.275698    1602.6355  0.040854474  0.040647293   0.05475302   0.13625479  0.025022072  0.025167085  0.034566179  0.084755335 
   43000   -1796551.5    12101.386   -1489.0409    77.032961    88.950692    81.275698    1604.0778  0.040322297  0.039342328  0.054447232   0.13411186  0.024314768  0.023796802   0.03506187   0.08317344 
   44000   -1796526.7    12127.667   -1773.6076    77.032961    88.950692    81.275698    1607.5615  0.039981525  0.040210005  0.055343187   0.13553472  0.024366917  0.024876066  0.034669081  0.083912065 
   45000   -1796508.6     11977.77   -1024.3822    77.032961    88.950692    81.275698    1587.6921  0.041343854  0.040389684  0.055415885   0.13714942  0.025102395  0.024981324  0.034650633  0.084734352 
   46000   -1796624.5    12123.607   -2161.6982    77.032961    88.950692    81.275698    1607.0232  0.041320322  0.040203996  0.053284222   0.13480854  0.025296811  0.024515996  0.033866681  0.083679488 
   47000   -1796538.1    12046.097   -2037.8366    77.032961    88.950692    81.275698    1596.7491  0.041796223  0.039922091    0.0560573   0.13777561  0.024305053    0.0240347  0.035231574  0.083571327 
   48000   -1796594.5    12121.103   -1424.0572    77.032961    88.950692    81.275698    1606.6914  0.043595715  0.040370664  0.056444714   0.14041109  0.025855581  0.024131498  0.035564312  0.085551391 
   49000   -1796497.5    12115.735   -1494.4723    77.032961    88.950692    81.275698    1605.9798  0.042151417  0.041373522  0.056262858    0.1397878  0.024429119  0.024989111  0.034688804  0.084107033 
   50000   -1796553.2     12058.31   -1552.3282    77.032961    88.950692    81.275698    1598.3679  0.041619973  0.040404362  0.057977714   0.14000205   0.02437784  0.024245012  0.035369898   0.08399275 
   51000   -1796517.4    12055.414   -1652.6731    77.032961    88.950692    81.275698    1597.9841  0.044129915  0.041360161  0.058456813   0.14394689  0.025594559   0.02435052  0.035197645  0.085142725 
   52000   -1796557.2    12091.534   -1309.7586    77.032961    88.950692    81.275698    1602.7719  0.043111915  0.041367594  0.057294636   0.14177415  0.024859953  0.023903816  0.034560735  0.083324504 
   53000   -1796620.4    12103.149   -1921.0734    77.032961    88.950692    81.275698    1604.3115  0.043666612  0.042179224  0.059843839   0.14568968  0.024596564  0.023781296  0.035970329  0.084348189 
   54000   -1796586.8    12130.611   -1993.7321    77.032961    88.950692    81.275698    1607.9516  0.043762882  0.042052331  0.058771203   0.14458642  0.024039162  0.024330035  0.034979781  0.083348978 
   55000   -1796567.4    12098.207    -1907.323    77.032961    88.950692    81.275698    1603.6565  0.045205327  0.042299182  0.059012363   0.14651687   0.02550175  0.024130366  0.035502134   0.08513425 
   56000   -1796583.1    12069.504   -2000.0135    77.032961    88.950692    81.275698    1599.8517  0.044640853  0.042653911  0.059412707   0.14670747  0.024335329  0.024554441  0.037436692  0.086326463 
   57000   -1796591.4    12093.563   -2390.2112    77.032961    88.950692    81.275698    1603.0408  0.044404817  0.042698228  0.060327518   0.14743056  0.024815959  0.023790325  0.036425911  0.085032195 
   58000     -1796586    12054.225   -1671.4998    77.032961    88.950692    81.275698    1597.8264   0.04519075  0.042354047  0.060839975   0.14838477   0.02492132  0.023975219  0.036820523  0.085717061 
   59000   -1796673.7    12095.689   -2689.4979    77.032961    88.950692    81.275698    1603.3226  0.044322415  0.042633801  0.060900145   0.14785636  0.023681259  0.024281241  0.036994239  0.084956739 
   60000   -1796602.1    12046.291   -1689.6274    77.032961    88.950692    81.275698    1596.7748   0.04489294  0.042767021  0.060501214   0.14816118  0.024782328  0.024267204  0.036396459  0.085445991 
   61000   -1796527.2    12002.623   -1605.5704    77.032961    88.950692    81.275698    1590.9864  0.045069893  0.042772613    0.0587634   0.14660591  0.024750724  0.024076691  0.036399474   0.08522689 
   62000   -1796631.5    12122.252   -1829.9221    77.032961    88.950692    81.275698    1606.8437   0.04542366  0.043183011  0.060581832    0.1491885  0.024016721  0.024193412  0.036681275  0.084891409 
   63000   -1796500.2    12109.781   -1428.3527    77.032961    88.950692    81.275698    1605.1906  0.045823821    0.0424359   0.06057073   0.14883045  0.025382274  0.023679724  0.037244555  0.086306553 
   64000   -1796559.9    12053.681   -1905.4752    77.032961    88.950692    81.275698    1597.7544  0.045831847  0.042461868  0.060013732   0.14830745  0.024704664  0.023379975  0.037203769  0.085288407 
   65000   -1796536.9    12073.662   -1144.2088    77.032961    88.950692    81.275698    1600.4028  0.046053188  0.043811095  0.061724328   0.15158861  0.024516912  0.024712183  0.036848706  0.086077802 
   66000   -1796556.6    12026.675     -1997.01    77.032961    88.950692    81.275698    1594.1747  0.046070818  0.043897481  0.061058727   0.15102703  0.024321534  0.024145089  0.036937454  0.085404078 
   67000   -1796516.7     12054.97   -1790.1541    77.032961    88.950692    81.275698    1597.9252  0.046983831  0.043900466  0.061615924   0.15250022   0.02530523  0.024206991  0.037392617  0.086904838 
   68000   -1796528.2    12069.766   -1629.7286    77.032961    88.950692    81.275698    1599.8864  0.045732673  0.044126425  0.062301344   0.15216044  0.023743558  0.024253191  0.038439736  0.086436486 
   69000   -1796559.4    12054.937   -1993.6303    77.032961    88.950692    81.275698    1597.9208   0.04687466  0.044705879  0.061271007   0.15285155  0.025089187  0.024554007  0.036897044  0.086540238 
   70000   -1796577.5     12039.07   -2085.4678    77.032961    88.950692    81.275698    1595.8175  0.048303921  0.044275543  0.061037255   0.15361672  0.025461557  0.024625843  0.036594365  0.086681765 
   71000   -1796509.5    12122.043   -1634.4323    77.032961    88.950692    81.275698     1606.816  0.046700039  0.044214084  0.060822761   0.15173688  0.024126798  0.023740889  0.035739034  0.083606722 
   72000   -1796559.1    12073.196   -1526.8886    77.032961    88.950692    81.275698    1600.3411  0.047227917  0.044920382    0.0629855    0.1551338  0.025067377  0.024368523  0.037352915  0.086788815 
   73000     -1796515    12047.071   -1312.4371    77.032961    88.950692    81.275698    1596.8781  0.047351003  0.045010425  0.060934433   0.15329586  0.024652815  0.024861912  0.035870911  0.085385637 
   74000   -1796558.5    12030.813   -1714.1724    77.032961    88.950692    81.275698    1594.7232  0.047394633  0.044279796  0.063993031   0.15566746  0.024497158  0.023630526  0.038153807  0.086281491 
   75000   -1796526.7    12042.664   -1536.1303    77.032961    88.950692    81.275698    1596.2939   0.04753352  0.045510406  0.063944215   0.15698814  0.024333701  0.024307312  0.038220076  0.086861089 
   76000   -1796612.9    12095.636   -2336.4715    77.032961    88.950692    81.275698    1603.3157  0.047795763  0.045134441  0.064153573   0.15708378  0.024451703  0.024025782  0.036682317  0.085159801 
   77000   -1796599.1    12141.814   -2204.8622    77.032961    88.950692    81.275698    1609.4366  0.048255931  0.045211633  0.062776994   0.15624456  0.024776099  0.024370677  0.036629729  0.085776505 
   78000   -1796636.1    12009.161   -2512.1791    77.032961    88.950692    81.275698    1591.8531  0.047221929  0.044905314  0.064006201   0.15613344   0.02441383  0.023825337  0.036534942   0.08477411 
   79000   -1796560.3    12096.109   -1787.1331    77.032961    88.950692    81.275698    1603.3783  0.048419249  0.045191376  0.063906127   0.15751675  0.024999036  0.024308369   0.03745563  0.086763035 
   80000   -1796605.5    12120.391   -1795.4065    77.032961    88.950692    81.275698     1606.597  0.048053719  0.045989785   0.06429499   0.15833849  0.024069993  0.024717801  0.037258966  0.086046761 
   81000   -1796548.9     12058.36   -2111.4575    77.032961    88.950692    81.275698    1598.3745     0.048501  0.045763867  0.065279005   0.15954387  0.024507651  0.023795072  0.038295819  0.086598541 
   82000   -1796572.6    12048.667   -2264.0958    77.032961    88.950692    81.275698    1597.0898  0.049736217  0.045779429  0.063302016   0.15881766  0.025641497   0.02394651  0.036622894  0.086210901 
   83000   -1796577.1    12086.915   -1545.5745    77.032961    88.950692    81.275698    1602.1596  0.048579653  0.046674537   0.06432544   0.15957963  0.024854697  0.024704609  0.037407078  0.086966385 
   84000     -1796524    12093.693   -1538.8809    77.032961    88.950692    81.275698    1603.0581  0.049791643  0.046460478  0.067573476    0.1638256  0.024959378  0.023604359  0.038244259  0.086807996 
   85000   -1796527.4    12067.843   -1583.0975    77.032961    88.950692    81.275698    1599.6316   0.05015498   0.04749361   0.06561021    0.1632588  0.025026577  0.023978333  0.037622101   0.08662701 
   86000   -1796630.5    12131.728   -1368.0972    77.032961    88.950692    81.275698    1608.0997  0.049777539  0.047306047  0.066621958   0.16370554  0.024754685  0.024227446  0.038005787  0.086987918 
   87000   -1796534.9    12080.397   -1842.2546    77.032961    88.950692    81.275698    1601.2956  0.050707393  0.048154579   0.06559253    0.1644545  0.024783357  0.024769343  0.036829068  0.086381767 
   88000     -1796628    12097.513   -1909.0512    77.032961    88.950692    81.275698    1603.5644  0.050445257  0.047928406  0.067188559   0.16556222   0.02453841  0.023911747  0.038126973   0.08657713 
   89000   -1796581.9      12135.8    -1354.587    77.032961    88.950692    81.275698    1608.6394  0.050643625  0.047787584  0.066647729   0.16507894  0.024376316  0.023527403   0.03748845   0.08539217 
   90000   -1796560.6    12071.881   -1620.8933    77.032961    88.950692    81.275698    1600.1669  0.051138364  0.049131168  0.067319186   0.16758872  0.024483134  0.024768551  0.039607568  0.088859252 
   91000   -1796569.5    12077.684   -1940.3341    77.032961    88.950692    81.275698     1600.936  0.051865891  0.047832669  0.067352317   0.16705088  0.025154183  0.023716669  0.038453736  0.087324588 
   92000   -1796555.5     12031.95   -1679.9904    77.032961    88.950692    81.275698    1594.8739  0.051045229  0.048169947   0.06736108   0.16657626  0.024484829  0.023886511  0.038934518  0.087305858 
   93000   -1796506.4    12080.721   -1557.8294    77.032961    88.950692    81.275698    1601.3386  0.051455333  0.049198579  0.068843869   0.16949778  0.024239077  0.024288296  0.038494415  0.087021788 
   94000   -1796539.6    12027.622   -2328.3716    77.032961    88.950692    81.275698    1594.3001    0.0522263  0.048559808  0.066621946   0.16740805  0.024770462  0.023441723  0.038491039  0.086703223 
   95000   -1796496.1    12083.848    -1535.801    77.032961    88.950692    81.275698     1601.753  0.052927968  0.049458925  0.068289459   0.17067635  0.025745922  0.024134102  0.039083018  0.088963042 
   96000   -1796530.5    12104.567   -1497.7868    77.032961    88.950692    81.275698    1604.4995  0.052152147  0.049312949  0.067853171   0.16931827  0.024584385  0.023629395  0.039580468  0.087794247 
   97000   -1796604.3    12078.143   -1397.2373    77.032961    88.950692    81.275698    1600.9968  0.052342774  0.050046486  0.068137139    0.1705264   0.02414846  0.025082455  0.038898798  0.088129713 
   98000   -1796580.6    12089.351   -1949.9898    77.032961    88.950692    81.275698    1602.4826  0.053587416  0.049413384  0.068136731   0.17113753  0.025735938  0.024342978   0.03938975  0.089468665 
   99000   -1796530.5    12101.115   -1185.7764    77.032961    88.950692    81.275698    1604.0419  0.053112749  0.050339538  0.069340679   0.17279297   0.02470072  0.024532001  0.039517031  0.088749751 
  100000   -1796499.8    12057.246   -1739.1262    77.032961    88.950692    81.275698    1598.2269  0.052877996  0.049696467  0.068939488   0.17151395  0.024187151  0.024869028  0.038831446  0.087887625 
  101000   -1796515.7    12067.994   -1846.1926    77.032961    88.950692    81.275698    1599.6516  0.054149334  0.049704664  0.069601971   0.17345597  0.025517621  0.024444682  0.040153881  0.090116184 
  102000   -1796583.1     12033.79   -1697.2336    77.032961    88.950692    81.275698    1595.1177  0.053264214  0.050326445  0.069415007   0.17300567  0.024585554  0.025220796  0.038391563  0.088197913 
  103000   -1796551.5     12126.69   -1617.5055    77.032961    88.950692    81.275698    1607.4319  0.053678677  0.049451359  0.069102959     0.172233  0.025457769  0.024599389  0.038558199  0.088615356 
  104000   -1796480.7    12026.684   -1913.3158    77.032961    88.950692    81.275698    1594.1758  0.054420077  0.050563259  0.070152896   0.17513623  0.024859275  0.024366714  0.038371013  0.087597003 
  105000     -1796572    12073.356   -1684.5624    77.032961    88.950692    81.275698    1600.3623  0.054823139  0.050406189  0.071447567   0.17667689  0.024980499  0.024210479  0.038090596  0.087281575 
  106000   -1796546.3      12041.8   -1604.4151    77.032961    88.950692    81.275698    1596.1795  0.054370953  0.052175249  0.071253055   0.17779926  0.024634131  0.024294425  0.038493059  0.087421615 
  107000   -1796642.2    12074.915   -2418.9158    77.032961    88.950692    81.275698     1600.569  0.054760273  0.051027439  0.072711548   0.17849926  0.024338369  0.024020203   0.03862664  0.086985212 
  108000   -1796556.4    12111.981   -2096.2759    77.032961    88.950692    81.275698    1605.4822  0.055808559   0.05091759  0.071027947    0.1777541  0.024660361   0.02415617   0.03746478  0.086281311 
  109000   -1796555.9    12094.034   -1226.4121    77.032961    88.950692    81.275698    1603.1032  0.055901085   0.05124234  0.072820523   0.17996395  0.024722843  0.024498275  0.039441964  0.088663082 
  110000   -1796610.6    12011.248   -1989.4721    77.032961    88.950692    81.275698    1592.1297  0.057871661  0.050697991  0.071983777   0.18055343  0.025035156  0.024035731  0.039125436  0.088196323 
  111000   -1796531.7    12087.913   -1680.9954    77.032961    88.950692    81.275698    1602.2919  0.057211283  0.052414384  0.073010609   0.18263628  0.024840706  0.023403063  0.039788109  0.088031878 
  112000   -1796597.9    12057.539   -1932.9245    77.032961    88.950692    81.275698    1598.2657  0.056825368  0.051321103  0.073848644   0.18199511  0.024531073  0.024011297  0.039560773  0.088103142 
  113000   -1796480.7    12062.547   -1586.1096    77.032961    88.950692    81.275698    1598.9296  0.057051003  0.053160896   0.07301605   0.18322795  0.024873905  0.024419324  0.041451625  0.090744854 
  114000   -1796560.1    12074.959    -1921.631    77.032961    88.950692    81.275698    1600.5748  0.056891232   0.05273543  0.072861403   0.18248806  0.024500964  0.024707678  0.038945069  0.088153712 
  115000   -1796538.8    12097.937   -1929.2653    77.032961    88.950692    81.275698    1603.6206  0.057525858  0.052266722   0.07335372    0.1831463   0.02505122  0.023857776  0.040397474   0.08930647 
  116000   -1796535.6    12100.773   -1425.4251    77.032961    88.950692    81.275698    1603.9965  0.057072141  0.052699809  0.073636307   0.18340826  0.024021906  0.024302967  0.039625069  0.087949942 
  117000   -1796518.3    12059.343   -1255.3906    77.032961    88.950692    81.275698    1598.5048  0.057444182  0.052514388  0.072828084   0.18278665   0.02438797  0.024301614  0.038604807   0.08729439 
  118000   -1796597.2    12146.048   -1774.8024    77.032961    88.950692    81.275698    1609.9979   0.05878765  0.052245087  0.074141572   0.18517431   0.02510005  0.023780723  0.039517963  0.088398735 
  119000   -1796528.6    12074.134     -1400.37    77.032961    88.950692    81.275698    1600.4655  0.058426115  0.053479968  0.074708188   0.18661427  0.024425695  0.024730436  0.040095378  0.089251509 
  120000   -1796621.5    12055.113   -2102.5925    77.032961    88.950692    81.275698    1597.9442  0.058190629  0.053650346  0.075246298   0.18708727  0.024245155  0.024875972   0.04048055  0.089601677 
  121000   -1796535.3    12139.987   -1594.7623    77.032961    88.950692    81.275698    1609.1945   0.05852692  0.054815423  0.074268481   0.18761082  0.024643532   0.02507075  0.039695536  0.089409818 
  122000   -1796579.5    12056.276   -1985.7082    77.032961    88.950692    81.275698    1598.0983  0.058730597  0.053687571  0.076400662   0.18881883  0.024457781  0.023938411  0.040889754  0.089285946 
  123000     -1796540    12013.134   -1511.4933    77.032961    88.950692    81.275698    1592.3797  0.057751197  0.053799781  0.074570014   0.18612099  0.024201816  0.024112406  0.039500567  0.087814789 
  124000   -1796605.8    12013.949    -1609.206    77.032961    88.950692    81.275698    1592.4877  0.058499531  0.054908363  0.075765528   0.18917342  0.025388153   0.02371531  0.041091103  0.090194566 
  125000   -1796560.4    12050.187   -1720.1624    77.032961    88.950692    81.275698    1597.2912  0.059489458  0.054115368  0.075926441   0.18953127  0.025228005  0.023768143   0.04147567  0.090471818 
  126000   -1796583.6    12075.406   -1672.2787    77.032961    88.950692    81.275698    1600.6341  0.059285614  0.054545453  0.076021655   0.18985272  0.025042836  0.024495901  0.040319499  0.089858236 
  127000   -1796538.5    12087.902   -1843.5106    77.032961    88.950692    81.275698    1602.2905  0.058955403  0.054249475  0.076794044   0.18999892  0.024467447  0.024271153  0.043164896  0.091903497 
  128000     -1796610    12143.914    -1756.046    77.032961    88.950692    81.275698     1609.715  0.059018149  0.055630121  0.075771809   0.19042008  0.024166861  0.024584785  0.040897265  0.089648912 
  129000   -1796467.5    12114.069    -1155.198    77.032961    88.950692    81.275698     1605.759  0.060780901  0.055352819  0.077480201   0.19361392  0.025750099  0.023869122   0.04276593  0.092385151 
  130000   -1796562.9     12046.61   -2177.3448    77.032961    88.950692    81.275698    1596.8171  0.060169412  0.054986077    0.0766852   0.19184069  0.024429856  0.023815275  0.041945776  0.090190907 
  131000     -1796500    12024.388   -1357.4375    77.032961    88.950692    81.275698    1593.8714  0.059358362  0.055820474  0.078374646   0.19355348  0.024084051  0.023603956  0.044233939  0.091921946 
  132000   -1796543.1    12058.857   -1933.8059    77.032961    88.950692    81.275698    1598.4405  0.060620008  0.056026712    0.0778782   0.19452492    0.0241328  0.023747277  0.042751789  0.090631866 
  133000   -1796555.2    12093.235   -891.88143    77.032961    88.950692    81.275698    1602.9973  0.060649879  0.056129776  0.078399723   0.19517938  0.024187627  0.024974539  0.042750545  0.091912711 
  134000   -1796597.7    12096.097   -2110.8945    77.032961    88.950692    81.275698    1603.3767  0.061108541  0.056253007  0.079419271   0.19678082  0.025161694   0.02384923  0.043342559  0.092353482 
  135000   -1796509.8    12044.534   -1116.5376    77.032961    88.950692    81.275698    1596.5419  0.062518513  0.057547076  0.078603366   0.19866896  0.024475193  0.025032527  0.042240138  0.091747858 
  136000   -1796539.9    12064.915   -1793.3777    77.032961    88.950692    81.275698    1599.2435  0.062396027  0.056580463  0.080851203   0.19982769  0.024105773  0.023964063  0.042920263  0.090990099 
  137000   -1796582.5    12054.144   -1562.4014    77.032961    88.950692    81.275698    1597.8158  0.062286467  0.057083773  0.080302745   0.19967298  0.024740354   0.02433477  0.041899796   0.09097492 
  138000     -1796513    12097.168   -1150.0137    77.032961    88.950692    81.275698    1603.5187  0.062912025  0.057604773   0.08047939   0.20099619  0.024664187  0.024565921  0.041458487  0.090688595 
  139000   -1796583.9    12055.951   -2272.4501    77.032961    88.950692    81.275698    1598.0553  0.063031995  0.057017052  0.080661146   0.20071019  0.024421546  0.023602402  0.041492769  0.089516716 
  140000   -1796610.8    11967.551   -1678.1569    77.032961    88.950692    81.275698    1586.3375  0.062976621  0.057032831  0.079957731   0.19996718  0.024293897  0.024297583  0.041161292  0.089752772 
  141000   -1796551.8    12132.042   -1616.8718    77.032961    88.950692    81.275698    1608.1414  0.063164815  0.057486226  0.081207437   0.20185848  0.024813254  0.023959869  0.042817771  0.091590894 
  142000   -1796505.7    12042.916    -1253.647    77.032961    88.950692    81.275698    1596.3274  0.064912451  0.057258017  0.082643387   0.20481386  0.026013788  0.023564824  0.042178672  0.091757284 
  143000   -1796557.4    12040.117   -1167.6424    77.032961    88.950692    81.275698    1595.9564  0.064195734  0.057507958  0.081455252   0.20315894   0.02515786  0.023796597  0.042299275  0.091253732 
  144000   -1796560.4    12137.746   -1870.7869    77.032961    88.950692    81.275698    1608.8974  0.063527657  0.058277297  0.081915675   0.20372063  0.024906395  0.023823544  0.042457884  0.091187823 
  145000   -1796558.1    12098.905   -1763.5563    77.032961    88.950692    81.275698    1603.7489  0.063788346  0.058045829   0.08211028   0.20394445  0.024391249  0.023904562  0.044346005  0.092641816 
  146000   -1796509.8    12060.811   -1741.0729    77.032961    88.950692    81.275698    1598.6995  0.063199038  0.058267775  0.081989517   0.20345633  0.024187908  0.023723797  0.042445174  0.090356879 
  147000   -1796615.9    12130.377   -1871.6519    77.032961    88.950692    81.275698    1607.9206  0.064027945  0.058237487  0.083196229   0.20546166  0.024603495  0.024010063  0.043700597  0.092314155 
  148000   -1796587.6    12047.067   -1764.8826    77.032961    88.950692    81.275698    1596.8777  0.064172855  0.059635779  0.083913036   0.20772167  0.024164759   0.02454952  0.042634372  0.091348651 
  149000   -1796529.8    12043.447   -1270.3589    77.032961    88.950692    81.275698    1596.3978  0.064094983  0.058085252  0.082196538   0.20437677  0.025306142  0.023570748  0.041400867  0.090277757 
  150000   -1796616.6    12122.142   -2034.2941    77.032961    88.950692    81.275698    1606.8291  0.063486333  0.058866275  0.083500847   0.20585345  0.024183197  0.024254864  0.043161073  0.091599133 
  151000   -1796549.2     12041.84   -1690.1774    77.032961    88.950692    81.275698    1596.1848  0.063866078  0.059463549  0.081889336   0.20521896   0.02441943  0.024647971  0.041002073  0.090069475 
  152000   -1796604.3    12074.142   -2024.0439    77.032961    88.950692    81.275698    1600.4665   0.06317758  0.059494816  0.082904416   0.20557681  0.024522772  0.023973279  0.042413791  0.090909841 
  153000   -1796574.7    12085.929   -1718.4702    77.032961    88.950692    81.275698    1602.0289  0.064085578  0.059153839  0.082439923   0.20567934  0.024664236  0.023747263  0.042469078  0.090880576 
  154000   -1796536.3    12121.822   -1662.7302    77.032961    88.950692    81.275698    1606.7867  0.064774387  0.059996598  0.084985445   0.20975643  0.024440886  0.024255808  0.042738134  0.091434828 
  155000   -1796584.1    12065.644   -1808.5686    77.032961    88.950692    81.275698    1599.3401  0.064605047  0.060012218  0.083071855   0.20768912  0.024865991  0.024252826  0.041650359  0.090769176 
  156000   -1796596.1    12042.014   -1686.9403    77.032961    88.950692    81.275698    1596.2078  0.064617479  0.060271148   0.08490121   0.20978984  0.024200007  0.024164878  0.042639883  0.091004768 
  157000   -1796605.3    12102.561   -1895.0449    77.032961    88.950692    81.275698    1604.2335  0.064519425  0.060614426  0.084605569   0.20973942  0.024605198  0.024327084  0.041703528   0.09063581 
  158000   -1796625.8    12099.675   -1968.4496    77.032961    88.950692    81.275698     1603.851  0.064997786  0.060983455  0.084696774   0.21067801  0.024105989  0.025215087  0.042600533  0.091921609 
  159000   -1796575.5    12082.821   -1983.8515    77.032961    88.950692    81.275698    1601.6169  0.065621989  0.060570081  0.086652732    0.2128448  0.024545858  0.023946689  0.043122684  0.091615232 
  160000   -1796572.1    12101.521   -1751.1793    77.032961    88.950692    81.275698    1604.0957  0.064944892  0.060628936  0.084936731   0.21051056  0.024274336   0.02360915  0.040972536  0.088856022 
  161000     -1796560    12061.336   -1732.3776    77.032961    88.950692    81.275698     1598.769  0.065892784  0.061131358  0.086574737   0.21359888  0.025419906  0.024212127  0.041968828  0.091600861 
  162000   -1796528.3    12068.102   -1497.0764    77.032961    88.950692    81.275698    1599.6659  0.065444961  0.061143108  0.085454449   0.21204252  0.024704176  0.024131784  0.041637403  0.090473363 
  163000   -1796633.3    12072.905     -1963.61    77.032961    88.950692    81.275698    1600.3025  0.066672408  0.061043081  0.086001645   0.21371713  0.025030896   0.02413103  0.041843756  0.091005682 
  164000   -1796590.3    12042.375   -2013.4207    77.032961    88.950692    81.275698    1596.2557  0.065722733  0.061936431  0.086477824   0.21413699  0.024129694  0.024151092  0.042081005  0.090361791 
  165000   -1796543.2    12208.375   -1467.1633    77.032961    88.950692    81.275698    1618.2595  0.066364751  0.061958692  0.086820706   0.21514415  0.024494578  0.024277725  0.041556442  0.090328746 
  166000   -1796505.1    12036.218   -1648.6476    77.032961    88.950692    81.275698    1595.4396  0.066177101  0.062102689  0.086806261   0.21508605  0.024590235  0.024410414  0.041756177  0.090756826 
  167000   -1796572.2    12086.634   -1734.5995    77.032961    88.950692    81.275698    1602.1224  0.065129831  0.061643396  0.086202862   0.21297609  0.024014467  0.024198952  0.040408659  0.088622078 
  168000   -1796623.9    12053.411   -1583.2906    77.032961    88.950692    81.275698    1597.7186  0.067089533  0.062269602  0.087761941   0.21712108  0.024597494  0.024459733   0.04123152  0.090288747 
  169000   -1796499.8    12114.258   -1198.3401    77.032961    88.950692    81.275698     1605.784  0.065728651  0.062093094  0.086777117   0.21459886  0.024081882  0.023554426  0.040274257  0.087910565 
  170000   -1796628.7    12088.562   -2319.9347    77.032961    88.950692    81.275698     1602.378  0.066457901  0.063221007  0.087226649   0.21690556  0.024297223  0.024333745  0.040898677  0.089529645 
  171000   -1796501.9    12062.192   -1598.8386    77.032961    88.950692    81.275698    1598.8825  0.066518159   0.06310143  0.087863971   0.21748356  0.024693003  0.024820004  0.041540914  0.091053921 
  172000   -1796555.8    12096.354   -1565.5226    77.032961    88.950692    81.275698    1603.4108   0.06677827  0.062732102  0.086769068   0.21627944  0.024545314  0.024132837  0.041489558  0.090167708 
  173000   -1796597.1    12020.922   -1758.2062    77.032961    88.950692    81.275698     1593.412   0.06780713  0.063267663  0.087891672   0.21896647  0.024999235  0.024380944  0.041840656  0.091220835 
  174000   -1796644.8    12025.253   -2399.7016    77.032961    88.950692    81.275698    1593.9861  0.066731838  0.063613476  0.085883528   0.21622884  0.024379178  0.024763732  0.040274573  0.089417483 
  175000   -1796505.6    12064.801   -1226.1484    77.032961    88.950692    81.275698    1599.2283  0.067975741  0.063710757  0.086961919   0.21864842  0.024793092  0.025377723  0.041008601  0.091179416 
  176000   -1796578.4    12004.746   -1880.1543    77.032961    88.950692    81.275698    1591.2679  0.068518725   0.06284314  0.087004381   0.21836625  0.025611077  0.023858356  0.040933139  0.090402572 
  177000   -1796643.5    12091.718   -2291.3098    77.032961    88.950692    81.275698    1602.7963  0.067417145  0.063512973  0.086030644   0.21696076  0.024017381  0.024580694  0.040210676  0.088808751 
  178000   -1796533.7    12135.397   -1798.7626    77.032961    88.950692    81.275698     1608.586  0.067225375  0.063605642  0.087730012   0.21856103  0.024123701  0.024701692  0.040923181  0.089748574 
  179000   -1796604.8    12012.598   -2098.3531    77.032961    88.950692    81.275698    1592.3086   0.06738263  0.063240138  0.086064637    0.2166874  0.024078248  0.023864763  0.039984433  0.087927444 
  180000   -1796508.1    12033.801   -1589.9332    77.032961    88.950692    81.275698    1595.1192   0.06977652  0.063582058  0.088914872   0.22227345  0.025638368  0.024380726  0.040905892  0.090924986 
  181000   -1796538.2    12057.342    -1918.048    77.032961    88.950692    81.275698    1598.2396  0.069070388  0.064415804  0.088129521   0.22161571  0.024382065  0.024291928  0.039793424  0.088467418 
  182000   -1796582.3    12016.855   -1590.2927    77.032961    88.950692    81.275698     1592.873  0.068157037  0.063981025  0.089406561   0.22154462  0.023340348  0.024002677  0.041555731  0.088898757 
  183000     -1796546    12041.979   -1740.1095    77.032961    88.950692    81.275698    1596.2032  0.068602981  0.064626987  0.089688499   0.22291847  0.024342784  0.023461065  0.042189156  0.089993006 
  184000     -1796614    12104.972   -2109.5874    77.032961    88.950692    81.275698    1604.5531  0.068852242  0.065755284  0.088679679    0.2232872  0.024394204  0.024994844  0.041240473  0.090629521 
  185000     -1796618    12090.109   -1855.3947    77.032961    88.950692    81.275698    1602.5829  0.069121846  0.066192835  0.089107778   0.22442246  0.024459239   0.02517833  0.040485698  0.090123266 
  186000   -1796623.3    12037.385   -2062.3479    77.032961    88.950692    81.275698    1595.5943  0.067903714  0.065258431  0.090248581   0.22341073   0.02377977  0.024164143  0.041371521  0.089315433 
  187000   -1796574.4    12081.529   -1978.3363    77.032961    88.950692    81.275698    1601.4457  0.068996231  0.064789891  0.089167635   0.22295376  0.024387157   0.02363614  0.040419596  0.088442894 
  188000   -1796601.9    11983.394   -1966.5508    77.032961    88.950692    81.275698    1588.4376   0.06906828  0.065689098  0.091300222    0.2260576  0.024401504  0.024163743  0.040347558  0.088912806 
  189000   -1796511.3    12039.076   -1745.7475    77.032961    88.950692    81.275698    1595.8185  0.069318721  0.065403219  0.091315918   0.22603786  0.024009779  0.023538727  0.041104089  0.088652595 
  190000   -1796612.3    12039.503   -1925.2579    77.032961    88.950692    81.275698     1595.875  0.068680829  0.066135638  0.091667252   0.22648372  0.023931444   0.02501957  0.041213069  0.090164084 
  191000   -1796491.6    12048.177   -1116.3206    77.032961    88.950692    81.275698    1597.0248  0.069156024  0.065835863  0.090181773   0.22517366  0.024115469  0.024374433  0.041184382  0.089674283 
  192000   -1796550.3    12056.743   -1830.1584    77.032961    88.950692    81.275698    1598.1602   0.07030774  0.065950829  0.092138191   0.22839676  0.024904171   0.02390587  0.042251194  0.091061234 
  193000   -1796605.1    12086.145   -1938.7392    77.032961    88.950692    81.275698    1602.0576   0.06994149  0.066382402  0.091840895   0.22816479  0.024137473  0.023607646  0.041686177  0.089431295 
  194000   -1796640.5    12078.809   -1957.5136    77.032961    88.950692    81.275698    1601.0851  0.069917791  0.066086856  0.091957159   0.22796181  0.023826641  0.023732791  0.041213463  0.088772894 
  195000   -1796529.2    12000.559   -1416.1193    77.032961    88.950692    81.275698    1590.7128  0.070655767  0.067629666  0.091173683   0.22945912  0.024348453  0.024658604  0.042749134  0.091756192 
  196000     -1796524    12046.229   -1580.2992    77.032961    88.950692    81.275698    1596.7665  0.070249567  0.067099873  0.091588878   0.22893832  0.023991327  0.024423334   0.04263579   0.09105045 
  197000   -1796573.5    12107.814   -1970.5591    77.032961    88.950692    81.275698    1604.9298   0.06992536  0.067224226  0.092674658   0.22982425  0.024732563  0.024306325  0.042809552  0.091848441 
  198000   -1796563.4    12060.007   -1830.8207    77.032961    88.950692    81.275698    1598.5928  0.070362788  0.068683407  0.092079246   0.23112544   0.02408722  0.025326337  0.042223547  0.091637104 
  199000   -1796579.9    12035.377   -2209.8597    77.032961    88.950692    81.275698    1595.3281  0.069981611  0.066517369  0.092556355   0.22905533  0.024430928  0.023779618  0.042409111  0.090619657 
  200000   -1796619.8    12053.568   -1462.2475    77.032961    88.950692    81.275698    1597.7393  0.070270384  0.067483603  0.092918125   0.23067211  0.024405514  0.024061062  0.043166184   0.09163276 
  201000   -1796561.2    12053.726   -1796.1139    77.032961    88.950692    81.275698    1597.7602  0.070987835  0.067598041  0.092643263   0.23122914  0.024033879  0.024583881  0.043487011  0.092104772 
  202000   -1796575.1    12197.641   -1917.1658    77.032961    88.950692    81.275698    1616.8368  0.071415944   0.06722072  0.091937503   0.23057417  0.024927086  0.024289729  0.043208829  0.092425644 
  203000   -1796540.7    12000.592   -2064.2313    77.032961    88.950692    81.275698    1590.7172    0.0706489  0.067709085  0.093045306   0.23140329  0.024125151  0.024542481  0.045000236  0.093667867 
  204000   -1796535.9    12047.864   -1819.1889    77.032961    88.950692    81.275698    1596.9833  0.071414354  0.068022988   0.09334002   0.23277736  0.025191038  0.024957512  0.044010959   0.09415951 
  205000     -1796484    12057.811   -850.98539    77.032961    88.950692    81.275698    1598.3018  0.071450616  0.068403595  0.093172808   0.23302702  0.024553878  0.024616975  0.042348398   0.09151925 
  206000   -1796560.7    12088.744   -2023.1256    77.032961    88.950692    81.275698     1602.402  0.072059557  0.068146218  0.094386631   0.23459241  0.025028425  0.024907499  0.043354367  0.093290291 
  207000   -1796596.6    12024.282   -2124.1477    77.032961    88.950692    81.275698    1593.8573  0.072538141  0.068527356  0.095148158   0.23621365  0.025128656  0.024610682  0.043381328  0.093120666 
  208000   -1796493.2    12098.594   -1381.8543    77.032961    88.950692    81.275698    1603.7077  0.071843564  0.068755044  0.094463565   0.23506217  0.024081454  0.024940468   0.04355793  0.092579852 
  209000   -1796585.2     12139.72   -1532.9727    77.032961    88.950692    81.275698    1609.1591  0.073843272  0.068923821  0.094832688   0.23759978  0.026222818  0.024089696  0.044264781  0.094577295 
  210000   -1796481.5     12077.81   -1248.9537    77.032961    88.950692    81.275698    1600.9527  0.072810948  0.068947213  0.095333573   0.23709173  0.024472123  0.024533298  0.042640391  0.091645812 
  211000   -1796574.3    12016.926   -2328.1712    77.032961    88.950692    81.275698    1592.8823  0.073962048  0.068221476  0.095364043   0.23754757  0.024764038  0.024222552  0.042105564  0.091092154 
  212000   -1796582.2    12140.882    -1504.974    77.032961    88.950692    81.275698    1609.3131  0.072848723  0.068197849   0.09586264   0.23690921  0.024673169  0.023426613  0.043056636  0.091156418 
  213000     -1796496     12052.37    -1633.401    77.032961    88.950692    81.275698    1597.5805  0.072359057   0.06910454  0.096131462   0.23759506  0.023712705  0.024109214  0.043271901   0.09109382 
  214000   -1796551.1    12111.473   -1566.6045    77.032961    88.950692    81.275698    1605.4148  0.073573584  0.069467846  0.096627451   0.23966888   0.02492737  0.024745778   0.04351551  0.093188658 
  215000   -1796496.2    12043.972   -1570.0253    77.032961    88.950692    81.275698    1596.4674  0.074102626  0.068972781  0.095960653   0.23903606  0.024826719  0.024217262  0.042601269   0.09164525 
  216000   -1796612.9    12041.639   -1980.2932    77.032961    88.950692    81.275698    1596.1582  0.073886869  0.069555346   0.09547096   0.23891318  0.024450333   0.02433622  0.044283212  0.093069766 
  217000   -1796577.5    12074.773   -1921.6327    77.032961    88.950692    81.275698    1600.5502    0.0733762  0.069444012  0.097806203   0.24062642  0.024473581  0.024603567  0.044119712   0.09319686 
  218000   -1796595.9    12105.194   -1703.4695    77.032961    88.950692    81.275698    1604.5826  0.074230463  0.070000997  0.095770467   0.24000193  0.025117486  0.024900891  0.042546765  0.092565143 
  219000   -1796610.6    12151.654   -1805.8062    77.032961    88.950692    81.275698     1610.741  0.074387291  0.069531134  0.096986403   0.24090483  0.024816288  0.023888663  0.042742604  0.091447555 
  220000     -1796599    11981.769   -2005.5949    77.032961    88.950692    81.275698    1588.2221  0.074444267  0.069329115  0.097234076   0.24100746   0.02422589  0.024077409  0.042913994  0.091217293 
  221000     -1796596    12103.021   -1872.9056    77.032961    88.950692    81.275698    1604.2945  0.074286015  0.070348997  0.096238251   0.24087326  0.024836944  0.024582934  0.042056806  0.091476685 
  222000     -1796541    12114.697   -1600.9607    77.032961    88.950692    81.275698    1605.8422  0.075026587  0.069248792  0.096019374   0.24029475  0.025340117  0.023666148  0.042262489  0.091268754 
  223000   -1796686.6    12007.359   -2521.1261    77.032961    88.950692    81.275698    1591.6143  0.075063786  0.070341188  0.096177449   0.24158242  0.024922058  0.024044939  0.042297236  0.091264233 
  224000   -1796550.6    12068.266   -1406.5332    77.032961    88.950692    81.275698    1599.6877  0.074996114  0.070624754   0.09850314   0.24412401  0.023683266  0.024517152    0.0440771  0.092277518 
  225000     -1796469    12137.014   -608.84385    77.032961    88.950692    81.275698    1608.8005   0.07545039  0.069866261  0.097973443   0.24329009  0.024272683  0.023904471   0.04337298  0.091550134 
  226000   -1796645.3      12093.7   -2286.5596    77.032961    88.950692    81.275698     1603.059  0.075188674  0.069939934  0.098765457   0.24389407  0.024619474  0.023664762  0.044059626  0.092343862 
  227000   -1796604.2    12093.187   -2149.8888    77.032961    88.950692    81.275698     1602.991  0.075930445  0.069972473  0.098386059   0.24428898   0.02471867  0.024467006  0.043314046  0.092499723 
  228000     -1796539    12038.858   -1670.6718    77.032961    88.950692    81.275698    1595.7895  0.075878803  0.070850437  0.098656342   0.24538558  0.025353496  0.024290372  0.043152396  0.092796264 
  229000   -1796580.2    12088.072   -1553.3319    77.032961    88.950692    81.275698     1602.313  0.075654035  0.070621713  0.097827658   0.24410341  0.024498927  0.023880518  0.043538037  0.091917481 
  230000     -1796551    12101.364   -2187.8946    77.032961    88.950692    81.275698    1604.0749  0.075934303  0.071148782  0.097633752   0.24471684  0.024499603  0.024313343  0.043346019  0.092158965 
  231000   -1796556.6      12117.5   -1348.2389    77.032961    88.950692    81.275698    1606.2138  0.077022142   0.07173604    0.0992959   0.24805408  0.025152309  0.024357477  0.043517889  0.093027675 
  232000   -1796586.1    12118.458   -1603.9452    77.032961    88.950692    81.275698    1606.3407  0.076384866  0.071087572  0.099599588   0.24707203  0.024572873  0.023924923  0.043721464  0.092219259 
  233000   -1796591.6    12073.529   -2068.7218    77.032961    88.950692    81.275698    1600.3853  0.076905448  0.071093122  0.098039975   0.24603854    0.0238701   0.02398325  0.042651964  0.090505314 
  234000     -1796520    12098.563   -1758.7359    77.032961    88.950692    81.275698    1603.7036  0.078494519  0.072007583  0.099970241   0.25047234  0.025381694   0.02455233  0.043315129  0.093249153 
  235000   -1796643.3    12175.765   -2073.8793    77.032961    88.950692    81.275698     1613.937  0.077242088  0.072613563  0.099107627   0.24896328  0.024180015  0.024255163  0.042856451   0.09129163 
  236000   -1796499.9    12032.599   -1348.9983    77.032961    88.950692    81.275698    1594.9598  0.077732171  0.073153177   0.10220598   0.25309132  0.024277551  0.024324718  0.043492292   0.09209456 
  237000   -1796664.7    12066.911        -2443    77.032961    88.950692    81.275698     1599.508  0.078472527  0.073592995  0.099525592   0.25159111  0.025072135  0.024177925   0.04280117   0.09205123 
  238000   -1796686.2    12087.506   -2396.2578    77.032961    88.950692    81.275698     1602.238  0.078441111  0.073463872   0.10102621   0.25293119  0.024360671  0.024095161  0.043747037  0.092202869 
  239000   -1796607.3    12059.266   -1979.1723    77.032961    88.950692    81.275698    1598.4947  0.078877194  0.073179333   0.10011014   0.25216667  0.024684449  0.024188487  0.043472439  0.092345376 
  240000   -1796548.5    12026.168   -1942.8835    77.032961    88.950692    81.275698    1594.1074  0.077855288  0.073246215     0.100406    0.2515075  0.024713232  0.024690969  0.043360223  0.092764424 
  241000   -1796498.8    12019.358   -1692.6243    77.032961    88.950692    81.275698    1593.2047  0.078522212  0.073279353    0.1017333   0.25353487  0.025319152  0.024253907   0.04276009   0.09233315 
  242000   -1796563.3    12115.624   -1588.1363    77.032961    88.950692    81.275698     1605.965  0.077722014  0.073721804  0.099440548   0.25088437  0.024460237  0.024506375  0.042552619  0.091519231 
  243000   -1796537.5    12148.816   -1892.0778    77.032961    88.950692    81.275698    1610.3648  0.080445066  0.072694745  0.099781927   0.25292174  0.026256819  0.023963068  0.043670491  0.093890379 
  244000   -1796531.8    12041.175   -1738.4457    77.032961    88.950692    81.275698    1596.0967  0.078663397  0.074401219   0.10103682   0.25410144  0.024652679  0.024405421  0.041774473  0.090832574 
  245000   -1796656.2    12007.604   -2526.3986    77.032961    88.950692    81.275698    1591.6467  0.079603301  0.073316301   0.10236759   0.25528719  0.025114222   0.02443266  0.044937502  0.094484384 
  246000   -1796539.5     12109.58   -1855.8779    77.032961    88.950692    81.275698     1605.164  0.079441365  0.073437273   0.10008524   0.25296388  0.025690645  0.023908503  0.042192058  0.091791206 
  247000     -1796574    12106.093    -1360.904    77.032961    88.950692    81.275698    1604.7017  0.078698097  0.073798425   0.10182945   0.25432597  0.024441434  0.024316693  0.044176791  0.092934918 
  248000   -1796574.9    12071.996   -2173.4766    77.032961    88.950692    81.275698    1600.1821  0.079473652  0.073888975   0.10125614   0.25461876  0.025531124  0.024620014   0.04339007  0.093541209 
  249000   -1796554.2    12068.616   -1356.2835    77.032961    88.950692    81.275698     1599.734  0.079432076  0.072824972   0.10104382   0.25330087  0.024306905  0.023943428  0.044169637   0.09241997 
  250000   -1796585.3     12077.85   -1391.6581    77.032961    88.950692    81.275698     1600.958  0.080620732  0.072420085   0.10243223   0.25547305  0.025712583  0.024444424  0.044523331  0.094680339 
  251000   -1796530.9    12045.693   -1432.4789    77.032961    88.950692    81.275698    1596.6955  0.079104071  0.074247671   0.10187758   0.25522932  0.024262561  0.024872079  0.042898884  0.092033524 
  252000   -1796648.9    12056.378   -2008.7999    77.032961    88.950692    81.275698    1598.1118  0.079119229  0.073370921   0.10295742   0.25544757  0.024477054  0.024548666  0.045535449  0.094561169 
  253000   -1796609.9     12121.97   -2039.7577    77.032961    88.950692    81.275698    1606.8063  0.080923683  0.072469093   0.10200471   0.25539749  0.025323215  0.024168883  0.043763526  0.093255624 
  254000   -1796542.5    11994.195   -1800.3056    77.032961    88.950692    81.275698    1589.8693  0.079198027  0.073644573   0.10170705   0.25454965  0.023639047  0.024582788   0.04398002  0.092201856 
  255000     -1796578    12049.908   -1944.6665    77.032961    88.950692    81.275698    1597.2542  0.080729728  0.074537667   0.10135099   0.25661838   0.02575759  0.025279546  0.042361188  0.093398323 
  256000   -1796542.9    12098.082   -1321.6665    77.032961    88.950692    81.275698    1603.6399  0.079731501  0.073810504   0.10107464   0.25461665  0.024991633  0.024226375   0.04430347  0.093521479 
  257000   -1796524.5    12071.679   -1812.6994    77.032961    88.950692    81.275698      1600.14  0.080059048  0.074734932   0.10168012   0.25647411   0.02393289  0.024674609  0.043582748  0.092190248 
  258000     -1796517     12012.92   -1767.2685    77.032961    88.950692    81.275698    1592.3514  0.080722887  0.074267362   0.10257316   0.25756341  0.025371949  0.024510299  0.044746116  0.094628363 
  259000   -1796583.3    12133.457   -1288.7989    77.032961    88.950692    81.275698    1608.3289  0.080162604  0.074039257   0.10280607   0.25700793   0.02397939  0.023826945   0.04546361  0.093269945 
  260000   -1796570.7    12056.324   -1852.7507    77.032961    88.950692    81.275698    1598.1046  0.079194267  0.074240579   0.10288556   0.25632041  0.024935862  0.024431625  0.046626769  0.095994256 
  261000   -1796640.6    12094.973   -2007.4074    77.032961    88.950692    81.275698    1603.2277  0.080515585  0.075151037   0.10367746   0.25934408  0.024437244  0.024176872  0.046314569  0.094928686 
  262000   -1796555.9    12027.973   -1872.7112    77.032961    88.950692    81.275698    1594.3467   0.08128768  0.074875185   0.10391372   0.26007658  0.025103905   0.02410539  0.045663382  0.094872677 
  263000     -1796508    12125.109   -1541.7579    77.032961    88.950692    81.275698    1607.2223  0.081588798  0.076182179   0.10547716   0.26324813   0.02490317  0.024353383  0.047351364  0.096607917 
  264000   -1796593.3    12015.312   -1831.3856    77.032961    88.950692    81.275698    1592.6684  0.080811571  0.075856653   0.10260314   0.25927136   0.02468776  0.024549509  0.046347537  0.095584805 
  265000   -1796521.3    12119.646   -1415.6015    77.032961    88.950692    81.275698    1606.4982  0.082887183  0.075231353   0.10476052   0.26287905  0.026423305  0.024097852  0.047664603   0.09818576 
  266000   -1796574.7    12130.905   -1592.4927    77.032961    88.950692    81.275698    1607.9907  0.079933138  0.074589326   0.10303866   0.25756112  0.023861161  0.023465051  0.047192697  0.094518909 
  267000   -1796557.9     12084.39   -1731.6344    77.032961    88.950692    81.275698    1601.8249  0.080489448  0.076419783   0.10396719   0.26087643  0.024529961  0.024143209  0.047506253  0.096179422 
  268000   -1796559.9    12026.189   -1385.9482    77.032961    88.950692    81.275698    1594.1102  0.081286701  0.076077641   0.10393535   0.26129969  0.024966433  0.024863486  0.047961635  0.097791553 
  269000   -1796571.8    12092.778   -1718.3574    77.032961    88.950692    81.275698    1602.9368  0.081454387  0.075275297   0.10286811   0.25959779  0.024244682  0.023677127  0.045475521  0.093397331 
  270000   -1796547.2    12049.836   -1673.4606    77.032961    88.950692    81.275698    1597.2447  0.082469101  0.074999381   0.10356723   0.26103571  0.025307749  0.024492765  0.046024403  0.095824917 
  271000   -1796562.4     12089.91   -1437.8527    77.032961    88.950692    81.275698    1602.5566  0.081470539  0.075709906   0.10394255     0.261123   0.02426499  0.023852082  0.045832966  0.093950038 
  272000   -1796574.2    12043.607   -1898.2684    77.032961    88.950692    81.275698    1596.4189  0.081343758  0.076080542   0.10661607   0.26404037  0.024173512  0.024940094   0.04673561  0.095849216 
  273000   -1796544.8    12019.241   -1976.2174    77.032961    88.950692    81.275698    1593.1892  0.081986538  0.076784555   0.10503017   0.26380126  0.024293993  0.024731765  0.045551591   0.09457735 
  274000   -1796587.9    12027.021   -1500.0693    77.032961    88.950692    81.275698    1594.2205  0.082137928  0.076241883   0.10331776   0.26169757  0.025680725  0.024763685  0.045905221  0.096349631 
  275000     -1796528    12069.001   -1648.5335    77.032961    88.950692    81.275698     1599.785  0.081577063  0.077136521   0.10637956   0.26509314  0.024410842  0.024700503  0.046803631  0.095914976 
  276000   -1796566.9    12096.261   -1466.3643    77.032961    88.950692    81.275698    1603.3985  0.082031973  0.076101397   0.10380828   0.26194165  0.024426072  0.024173622  0.045793683  0.094393377 
  277000   -1796541.3    12020.568     -1473.59    77.032961    88.950692    81.275698    1593.3651   0.08353254  0.076795106   0.10595548   0.26628312  0.025820084  0.024149386  0.046421963  0.096391433 
  278000   -1796657.4    12130.129   -2161.2129    77.032961    88.950692    81.275698    1607.8878  0.082142747  0.076841107   0.10618188   0.26516574  0.023937341  0.024051766   0.04692988  0.094918987 
  279000   -1796604.5    12031.517   -1822.6667    77.032961    88.950692    81.275698    1594.8164  0.082222952   0.07581077   0.10692869   0.26496241  0.024023986  0.023653537  0.046752492  0.094430014 
  280000   -1796590.2    12136.701   -1264.3514    77.032961    88.950692    81.275698    1608.7589  0.083592893  0.075975571   0.10460954     0.264178  0.025414805  0.023555817  0.045615179  0.094585801 
  281000   -1796545.9    12077.507   -1783.5182    77.032961    88.950692    81.275698    1600.9125  0.082527537  0.077056632   0.10628321   0.26586738  0.024448442  0.024134449  0.045589658  0.094172549 
  282000   -1796582.5    12026.733   -1728.6975    77.032961    88.950692    81.275698    1594.1823    0.0829035  0.077613725   0.10599637    0.2665136  0.024586189  0.023746432  0.045867757  0.094200378 
  283000   -1796586.6    12096.001   -2154.3794    77.032961    88.950692    81.275698    1603.3639  0.083316957  0.077562715   0.10575691   0.26663658  0.024764071  0.023887193  0.045094906  0.093746171 
  284000     -1796627     12096.14   -1214.1614    77.032961    88.950692    81.275698    1603.3825  0.083318785  0.077119016   0.10586111   0.26629891  0.024844021  0.024159089  0.044647676  0.093650786 
  285000   -1796558.4    11987.907   -2269.2677    77.032961    88.950692    81.275698    1589.0358  0.082257257  0.077361731   0.10517728   0.26479627  0.024411677  0.023757809  0.044529003  0.092698488 
  286000   -1796588.3    12081.391   -1885.4725    77.032961    88.950692    81.275698    1601.4274  0.082650301  0.077187348   0.10519453   0.26503217  0.025123944  0.023633388  0.045327908   0.09408524 
  287000   -1796591.3    12074.886   -2104.2557    77.032961    88.950692    81.275698    1600.5652  0.083799713  0.077262745    0.1059112   0.26697366  0.025387828  0.023527839   0.04456149  0.093477156 
  288000   -1796516.4    12112.661   -1621.6774    77.032961    88.950692    81.275698    1605.5723  0.082733448  0.078335821    0.1060355   0.26710477  0.024227152  0.024180959  0.045191639  0.093599749 
  289000   -1796572.7    12127.403   -1680.4133    77.032961    88.950692    81.275698    1607.5265  0.083466022  0.078594464   0.10649821   0.26855869  0.024570355  0.024683146  0.045969075  0.095222576 
  290000   -1796516.6    12063.132   -1243.6969    77.032961    88.950692    81.275698    1599.0071  0.083801009  0.078213351   0.10573605   0.26775041  0.025096481  0.024170173  0.045291833  0.094558487 
  291000   -1796624.4    12072.534   -2133.5578    77.032961    88.950692    81.275698    1600.2534  0.084354251  0.077304681    0.1064912   0.26815013   0.02505418  0.023620867  0.046353141  0.095028188 
  292000   -1796593.3    12154.743   -1613.1244    77.032961    88.950692    81.275698    1611.1505  0.083345579  0.078456003   0.10708443   0.26888601  0.024617221  0.024649128  0.044795305  0.094061654 
  293000   -1796498.1    12091.285    -1544.491    77.032961    88.950692    81.275698    1602.7389  0.083778456  0.078330661   0.10699242   0.26910154  0.025365989  0.024281102  0.045950467  0.095597558 
  294000   -1796570.8    12113.403   -2187.7669    77.032961    88.950692    81.275698    1605.6707  0.083167614  0.077911761   0.10647591   0.26755528  0.024207186  0.023777453  0.045523809  0.093508448 
  295000   -1796552.8    12096.515   -1564.5717    77.032961    88.950692    81.275698    1603.4321  0.083997294  0.078879254   0.10804138   0.27091793  0.024721793  0.024226387  0.046305657  0.095253836 
  296000   -1796555.4    12149.198   -1281.1509    77.032961    88.950692    81.275698    1610.4155  0.085522461  0.078495488   0.10823582   0.27225377  0.025553184  0.024188321  0.046414407  0.096155912 
  297000   -1796536.7    12026.467    -1889.086    77.032961    88.950692    81.275698    1594.1471  0.082716386  0.078789035   0.10868045   0.27018587  0.024565511  0.024516117  0.045560255  0.094641883 
  298000   -1796549.3    12081.656   -1367.7367    77.032961    88.950692    81.275698    1601.4625  0.082630927  0.078506334   0.10804371   0.26918097  0.023916601  0.024408404  0.046914543  0.095239547 
  299000   -1796473.5    12098.884    -914.8613    77.032961    88.950692    81.275698    1603.7461  0.084693896  0.079169112   0.10648823   0.27035124  0.025563999  0.025141434  0.045328099  0.096033532 
  300000   -1796625.1    12096.435   -1562.7896    77.032961    88.950692    81.275698    1603.4216   0.08474691  0.079263271   0.10784553   0.27185571  0.025175466  0.024169314  0.043941435  0.093286215 
  301000   -1796558.3    12167.229   -995.11815    77.032961    88.950692    81.275698    1612.8055  0.084706898  0.080400594   0.10871091    0.2738184   0.02542199  0.024207936  0.045225198  0.094855123 
  302000   -1796579.2    12061.679   -1605.5408    77.032961    88.950692    81.275698    1598.8145   0.08557791  0.079620804   0.10782128   0.27301999  0.026119009  0.024586218  0.044449286  0.095154512 
  303000   -1796533.3    12051.308   -1401.0961    77.032961    88.950692    81.275698    1597.4398  0.084415136   0.07986837   0.10702561   0.27130911  0.024212677  0.023948039  0.044001609  0.092162325 
  304000   -1796530.8    12040.443   -1633.3571    77.032961    88.950692    81.275698    1595.9997  0.084642184  0.079429793    0.1074344   0.27150638  0.024750929  0.023755549  0.045722658  0.094229135 
  305000   -1796509.1    12018.398   -1338.6963    77.032961    88.950692    81.275698    1593.0774   0.08482092  0.079745475   0.10943203   0.27399843   0.02537737  0.023980983  0.045394087   0.09475244 
  306000   -1796549.2    12123.462   -1450.7446    77.032961    88.950692    81.275698     1607.004  0.084792433  0.080252635   0.10751667   0.27256174  0.024715389  0.024439409  0.044136479  0.093291277 
  307000   -1796582.5    12127.354   -1637.2029    77.032961    88.950692    81.275698    1607.5199  0.083706495  0.079946797    0.1093844    0.2730377  0.024703295  0.024492842  0.047538124  0.096734261 
  308000   -1796598.7    12071.138   -1835.1846    77.032961    88.950692    81.275698    1600.0684  0.083889757  0.079136572    0.1080566   0.27108293  0.025086821  0.023520026  0.044465838  0.093072685 
  309000   -1796602.3    12112.054   -1690.1536    77.032961    88.950692    81.275698    1605.4919  0.083701773  0.079922825   0.10901145   0.27263605  0.024021149  0.024022286  0.046613903  0.094657338 
  310000   -1796517.4    12057.023   -1434.5689    77.032961    88.950692    81.275698    1598.1974  0.083951298  0.080050597   0.10689584   0.27089773  0.024455303  0.024024423  0.044410862  0.092890589 
  311000     -1796595    12112.824   -1846.1519    77.032961    88.950692    81.275698    1605.5939   0.08630516  0.078813506   0.10973772   0.27485639  0.026310281  0.023815958  0.044841915  0.094968153 
  312000   -1796520.3    12003.155    -2214.418    77.032961    88.950692    81.275698     1591.057    0.0840488  0.080757288   0.10718895   0.27199504  0.024470651   0.02474554  0.044246956  0.093463148 
  313000   -1796594.5    12019.317   -1953.4057    77.032961    88.950692    81.275698    1593.1993  0.084171964  0.079692621   0.10821507   0.27207965  0.024076694  0.024294046  0.044831536  0.093202276 
  314000   -1796618.9    12111.992   -1557.0415    77.032961    88.950692    81.275698    1605.4836   0.08500359  0.079791801   0.10877395   0.27356934  0.026258684   0.02429285  0.045512808  0.096064342 
  315000   -1796581.7    12012.301   -2004.4339    77.032961    88.950692    81.275698    1592.2692  0.084044684  0.081210886   0.10817381   0.27342939  0.024771005  0.024249519  0.044365916   0.09338644 
  316000   -1796613.8    12060.267   -2199.1644    77.032961    88.950692    81.275698    1598.6273  0.084128109   0.08084546    0.1091651   0.27413867  0.024900359  0.024929578  0.044741475  0.094571412 
  317000   -1796518.8     12071.18    -1140.437    77.032961    88.950692    81.275698    1600.0739  0.084784689  0.080139778   0.10908457   0.27400904   0.02543094  0.025120111  0.043225965  0.093777016 
  318000   -1796479.5    12068.482   -1158.9572    77.032961    88.950692    81.275698    1599.7163  0.084076691  0.081302604   0.11008282   0.27546212  0.024737022  0.025044173   0.04406013  0.093841325 
  319000     -1796628    12121.335   -2368.5633    77.032961    88.950692    81.275698    1606.7221  0.085184809  0.079608602   0.11086449    0.2756579   0.02519808  0.024197568  0.045291359  0.094687008 
  320000   -1796573.9    12089.088   -1903.1994    77.032961    88.950692    81.275698    1602.4476  0.085459303  0.080495718   0.10898056   0.27493558  0.025251586  0.024045504  0.044481448  0.093778538 
  321000   -1796624.3    12040.154   -1722.3237    77.032961    88.950692    81.275698    1595.9613  0.085416472  0.081240301   0.11033406   0.27699084  0.026078166  0.024129555  0.047095557  0.097303279 
  322000   -1796526.7    12093.124   -1303.7781    77.032961    88.950692    81.275698    1602.9826  0.083929015  0.081842076   0.10971766   0.27548875  0.024007079  0.024774534  0.046935544  0.095717156 
  323000   -1796560.2    12055.678   -1866.4444    77.032961    88.950692    81.275698     1598.019  0.084542606  0.082132721   0.11111822   0.27779355  0.024086836  0.024786943   0.04726199  0.096135768 
  324000   -1796583.2    12005.823   -1347.4923    77.032961    88.950692    81.275698    1591.4106  0.087177258  0.082021475   0.11113492   0.28033366  0.026548844  0.025148295  0.046531535  0.098228674 
  325000   -1796579.1     12046.51    -1834.638    77.032961    88.950692    81.275698    1596.8039   0.08546533  0.082432852   0.11166237   0.27956055  0.024889228  0.024140733  0.046732484  0.095762446 
  326000   -1796605.6    12074.996   -1467.7106    77.032961    88.950692    81.275698    1600.5797  0.087065195  0.081499331   0.11267329   0.28123782  0.025919189  0.024370498  0.046774889  0.097064576 
  327000   -1796574.1    12114.334    -1731.019    77.032961    88.950692    81.275698    1605.7941  0.086885919  0.080986456   0.11252484   0.28039722  0.025666977  0.023930427  0.045354652  0.094952056 
  328000     -1796527     12016.15   -1803.6496    77.032961    88.950692    81.275698    1592.7795  0.085719661  0.081963229   0.11265413   0.28033702  0.024374337  0.024248557  0.046906335  0.095529229 
  329000   -1796610.4    12076.216    -1527.419    77.032961    88.950692    81.275698    1600.7414  0.086327408  0.083006449   0.11205117   0.28138503  0.025317027  0.024295308  0.046681304   0.09629364 
  330000   -1796546.7    12095.705   -1393.4382    77.032961    88.950692    81.275698    1603.3247  0.087132277  0.083139473   0.11269357   0.28296532  0.025705047  0.024347165  0.046653963  0.096706175 
  331000     -1796517    12043.509   -1273.8528    77.032961    88.950692    81.275698    1596.4061  0.087417935  0.084687314   0.11324389   0.28534914  0.024387418  0.024415382  0.047165004  0.095967804 
  332000   -1796577.7    12056.911   -1234.4471    77.032961    88.950692    81.275698    1598.1825  0.087001869  0.084872448   0.11458634   0.28646066  0.024556798  0.024493489  0.046932434  0.095982721 
  333000   -1796598.2     12053.71   -2050.5972    77.032961    88.950692    81.275698    1597.7582  0.086806392  0.083816941   0.11423822   0.28486155  0.024106187  0.024028328  0.046916622  0.095051137 
  334000   -1796536.9    12051.368   -1505.0821    77.032961    88.950692    81.275698    1597.4477  0.087958115  0.083954805   0.11456342   0.28647634  0.024893999  0.024517895  0.046816876  0.096228771 
  335000   -1796625.7     12134.87   -2426.0788    77.032961    88.950692    81.275698    1608.5162  0.088848134   0.08469513   0.11322008   0.28676335  0.024769136  0.024115146  0.045612201  0.094496483 
  336000   -1796519.6     12020.36   -1654.4993    77.032961    88.950692    81.275698    1593.3375  0.090573185  0.084230892   0.11308081   0.28788488  0.026642258  0.024829545  0.047383193  0.098854997 
  337000   -1796553.5    12129.695   -1279.8678    77.032961    88.950692    81.275698    1607.8302  0.087159556   0.08482184   0.11486621   0.28684761  0.023865953  0.024224014  0.047536621  0.095626588 
  338000   -1796475.4     12032.63   -1104.4191    77.032961    88.950692    81.275698     1594.964  0.088029269  0.084067195   0.11354361   0.28564008  0.024651176  0.024427613  0.046083321   0.09516211 
  339000   -1796540.5    12079.454   -1219.1479    77.032961    88.950692    81.275698    1601.1706   0.09064011  0.084446532   0.11520968   0.29029632  0.026883316  0.024388762  0.047553242   0.09882532 
  340000     -1796595    12064.248   -1844.4045    77.032961    88.950692    81.275698     1599.155  0.088528477   0.08526449   0.11513852   0.28893149  0.023852353  0.024088835   0.04852121  0.096462397 
  341000   -1796523.7    12031.488   -987.42869    77.032961    88.950692    81.275698    1594.8126  0.088312262  0.085553517   0.11379831   0.28766409  0.025104665   0.02489381  0.048381581  0.098380056 
  342000   -1796636.4    12072.175   -2313.7143    77.032961    88.950692    81.275698    1600.2057   0.08938625  0.083950894   0.11475754   0.28809468  0.024133253  0.023077042  0.047559974  0.094770269 
  343000   -1796545.4    12071.541   -1737.3678    77.032961    88.950692    81.275698    1600.1218  0.088426827  0.085223271   0.11391501   0.28756511  0.024202627  0.024750205  0.046865037  0.095817869 
  344000   -1796519.5     12078.78    -1325.563    77.032961    88.950692    81.275698    1601.0814  0.088994786  0.085242965   0.11505873   0.28929649  0.024657248  0.024765837  0.047388297  0.096811383 
  345000   -1796561.3     12031.11    -1921.399    77.032961    88.950692    81.275698    1594.7625  0.089543795  0.084923855   0.11461712   0.28908477  0.024190319  0.024151531  0.049405005  0.097746854 
  346000   -1796696.1      12073.5   -2338.8314    77.032961    88.950692    81.275698    1600.3814  0.090176915  0.084585338   0.11603434   0.29079659  0.025633078  0.023961143  0.049252807  0.098847028 
  347000   -1796488.1    12036.189   -1202.0168    77.032961    88.950692    81.275698    1595.4357   0.08883347  0.085181636    0.1165347   0.29054981   0.02417734  0.024010874  0.049116971  0.097305185 
  348000   -1796565.1    12057.031   -1181.6974    77.032961    88.950692    81.275698    1598.1985   0.09100551  0.084417715   0.11590317    0.2913264   0.02511751   0.02447994  0.048413916  0.098011366 
  349000   -1796512.2    12047.487   -1581.8714    77.032961    88.950692    81.275698    1596.9333  0.089665359  0.086293339   0.11631722   0.29227591  0.024392277  0.024150244  0.048287254  0.096829775 
  350000   -1796565.7    12080.092   -1847.2371    77.032961    88.950692    81.275698    1601.2551  0.090758998  0.085566008   0.11573734   0.29206235  0.024647737  0.024896332  0.046786522  0.096330591 
  351000   -1796588.6    12110.091    -1742.831    77.032961    88.950692    81.275698    1605.2317  0.093459205  0.085334276   0.11695804   0.29575152  0.026739194  0.024303072  0.048657981  0.099700247 
  352000   -1796534.7    12102.098   -1423.5755    77.032961    88.950692    81.275698    1604.1721  0.090367101  0.084849988   0.11651657   0.29173366  0.024118743  0.023633416  0.048402212   0.09615437 
  353000   -1796574.1    12096.494   -1660.2481    77.032961    88.950692    81.275698    1603.4293  0.090918798  0.085215397   0.11644925   0.29258345  0.024716418  0.024329947  0.047423489  0.096469854 
  354000   -1796625.7    12128.378   -1832.6345    77.032961    88.950692    81.275698    1607.6557   0.09099575  0.085113598   0.11563467   0.29174401   0.02485752  0.023623242  0.046788819  0.095269581 
  355000   -1796554.5    12085.925   -1806.7897    77.032961    88.950692    81.275698    1602.0284  0.091078494  0.086410934   0.11729097    0.2947804  0.023914051  0.024132468  0.047261248  0.095307766 
  356000   -1796551.2    12128.788   -1751.4058    77.032961    88.950692    81.275698    1607.7101  0.090329253  0.085859374   0.11726728   0.29345591  0.024894502  0.024162834   0.04752827  0.096585606 
  357000   -1796618.5    12033.475   -2349.5515    77.032961    88.950692    81.275698     1595.076  0.089912404  0.087259687   0.11645116   0.29362325  0.024572541  0.024681625  0.047362334    0.0966165 
  358000   -1796609.8    12053.359   -1726.8068    77.032961    88.950692    81.275698    1597.7116  0.090809554  0.086212667   0.11838904   0.29541126   0.02488268  0.023460206  0.048201657  0.096544544 
  359000   -1796618.4    12153.179   -1772.3043    77.032961    88.950692    81.275698    1610.9432  0.091360447   0.08673562   0.11788722   0.29598328  0.024425142  0.023947747  0.046863417  0.095236305 
  360000   -1796533.6     12078.05   -1249.9452    77.032961    88.950692    81.275698    1600.9845  0.091614646  0.087470633   0.11625141   0.29533669   0.02481569  0.024607521  0.046697556  0.096120768 
  361000   -1796482.8    12061.687   -1253.2486    77.032961    88.950692    81.275698    1598.8156  0.092534744  0.087493558   0.12062119   0.30064949  0.025747381  0.024641501  0.048769871  0.099158753 
  362000   -1796585.8    11994.982   -1323.0538    77.032961    88.950692    81.275698    1589.9736  0.092110025  0.086689939   0.11838739   0.29718735  0.024198996  0.024166035  0.048970441  0.097335472 
  363000   -1796584.2    12074.832   -2132.3958    77.032961    88.950692    81.275698     1600.558  0.093597422  0.086423328   0.11678111   0.29680186  0.026195036   0.02358867  0.048590904   0.09837461 
  364000   -1796544.1    12018.728   -1407.6799    77.032961    88.950692    81.275698    1593.1212  0.093167307  0.087108289   0.11901804   0.29929364  0.024889244  0.024808852  0.049637698  0.099335795 
  365000     -1796562    11993.275   -1809.5134    77.032961    88.950692    81.275698    1589.7474  0.092967009   0.08620759   0.11774655   0.29692115  0.024236264  0.024226197  0.047318509  0.095780971 
  366000   -1796545.5    12108.435    -1750.165    77.032961    88.950692    81.275698    1605.0121  0.094389804  0.088191569   0.11962908   0.30221045  0.025720263  0.024586681  0.046922461  0.097229405 
  367000   -1796633.6    12031.132    -1762.362    77.032961    88.950692    81.275698    1594.7654  0.091415533  0.088482037   0.11822276   0.29812033  0.023812668   0.02523942  0.047813705  0.096865793 
  368000   -1796605.1    12087.975   -1670.6269    77.032961    88.950692    81.275698    1602.3001  0.091459511  0.087851542    0.1199599   0.29927095  0.024661082  0.024588016  0.047261268  0.096510366 
  369000   -1796536.3    12092.801   -1243.8739    77.032961    88.950692    81.275698    1602.9398  0.094268582  0.087606866    0.1189116   0.30078704  0.025304933  0.024079873  0.046422199  0.095807006 
  370000   -1796566.6    12084.916   -1478.5234    77.032961    88.950692    81.275698    1601.8946  0.092901517  0.087659526   0.11788831   0.29844936   0.02441574  0.024334462  0.045059536  0.093809738 
  371000   -1796687.7    12117.359   -2271.1123    77.032961    88.950692    81.275698    1606.1951  0.091879851  0.087885215   0.12004407   0.29980913  0.023897482  0.024456118  0.046019372  0.094372972 
  372000   -1796533.2      12131.8   -1330.9391    77.032961    88.950692    81.275698    1608.1092  0.092536971  0.087242022   0.11906127   0.29884026  0.024632658  0.024583964  0.044584586  0.093801208 
  373000   -1796582.6     12103.07   -1792.3098    77.032961    88.950692    81.275698     1604.301  0.093202171  0.087847558   0.12077382   0.30182355  0.025454519   0.02404495  0.045027318  0.094526787 
  374000   -1796577.7    12024.993   -1851.1427    77.032961    88.950692    81.275698    1593.9517  0.091938596  0.089248586   0.11941897   0.30060615  0.023982437  0.025348008  0.043184927  0.092515372 
  375000   -1796608.4    12086.056   -1745.3756    77.032961    88.950692    81.275698    1602.0457  0.093428178  0.087908097   0.11946771   0.30080399  0.024584873  0.024338908  0.045069766  0.093993547 
  376000   -1796523.4    12018.868   -1699.8797    77.032961    88.950692    81.275698    1593.1397  0.093507631  0.087545095   0.12120244   0.30225517  0.025116757  0.023636759  0.045072758  0.093826273 
  377000   -1796525.5    12053.482   -2192.3383    77.032961    88.950692    81.275698     1597.728  0.093004058  0.088324802   0.12009168   0.30142054  0.023890077  0.023991726  0.045351703  0.093233506 
  378000   -1796541.6    12071.673   -1410.4605    77.032961    88.950692    81.275698    1600.1393  0.093898864  0.089340319   0.12146372    0.3047029  0.025353307  0.024272478  0.045746526  0.095372311 
[...]
  907000   -1796573.4    12041.019   -1766.2072    77.032961    88.950692    81.275698    1596.0759   0.13982491   0.13766808   0.20143929   0.47893229  0.025173518  0.024130006  0.059794473     0.109098 
  908000   -1796600.7    12054.475   -1057.3151    77.032961    88.950692    81.275698    1597.8596   0.14031053   0.13711713   0.19975176   0.47717942  0.025420833  0.024190832  0.061573224   0.11118489 
  909000   -1796559.6    12097.093   -1461.8267    77.032961    88.950692    81.275698    1603.5088   0.14003904   0.13665922   0.20094578   0.47764403  0.025293096  0.024279351  0.060430514   0.11000296 
  910000   -1796646.3    12036.998   -2071.6924    77.032961    88.950692    81.275698     1595.543   0.14006035   0.13726699   0.20089836   0.47822569  0.025376935  0.024806493  0.061560255   0.11174368 
  911000   -1796632.9    12096.737   -1702.4177    77.032961    88.950692    81.275698    1603.4616   0.14191832   0.13624899   0.20043908   0.47860639  0.026012223  0.024039496  0.060975731   0.11102745 
  912000   -1796559.4    12014.695    -1886.007    77.032961    88.950692    81.275698    1592.5866   0.14171804    0.1373076   0.20270259   0.48172823  0.025180225   0.02370329   0.06125492   0.11013844 
  913000   -1796532.1    11990.161   -1770.1267    77.032961    88.950692    81.275698    1589.3346   0.14223001   0.13700751   0.20251872   0.48175623   0.02524559   0.02489506   0.06097798   0.11111863 
  914000   -1796564.3     11972.64   -1421.8749    77.032961    88.950692    81.275698    1587.0121    0.1413015   0.13722516   0.20113877   0.47966543  0.025829373  0.023947273  0.061136525   0.11091317 
  915000     -1796509    12093.317   -1490.3419    77.032961    88.950692    81.275698    1603.0082    0.1400736   0.13639992   0.20241521   0.47888873  0.024406472  0.023639517  0.060496002   0.10854199 
  916000   -1796539.1    12174.855   -1289.6738    77.032961    88.950692    81.275698    1613.8163   0.14074991   0.13817585   0.20375361   0.48267938   0.02513681  0.024837809  0.060471781    0.1104464 
  917000   -1796541.2    12044.011    -1524.879    77.032961    88.950692    81.275698    1596.4725   0.14351803   0.13856766   0.20245623   0.48454192  0.025867198  0.024102646  0.060760045   0.11072989 
  918000   -1796637.9    12046.176   -1933.8821    77.032961    88.950692    81.275698    1596.7595   0.14132116    0.1371202   0.20340504    0.4818464  0.024133161  0.023666318  0.060277829   0.10807731 
  919000   -1796567.3    11997.092   -1496.8301    77.032961    88.950692    81.275698    1590.2533   0.14252299   0.13635698   0.20335765   0.48223762  0.024868269  0.023789145  0.059818051   0.10847546 
  920000   -1796572.2    12045.289   -1594.7809    77.032961    88.950692    81.275698     1596.642   0.14257053   0.13724062   0.20274968   0.48256083     0.024987  0.024292361  0.058777659   0.10805702 
  921000   -1796617.3    12092.421   -1453.8654    77.032961    88.950692    81.275698    1602.8895   0.14274363   0.13805694   0.20628809   0.48708866  0.025535643  0.024253258  0.058364416   0.10815332 
  922000   -1796528.8    12077.696   -1061.9342    77.032961    88.950692    81.275698    1600.9377    0.1418935   0.13765738   0.20483799   0.48438887  0.024165201  0.023847695  0.058287384   0.10630028 
  923000   -1796526.1    12090.446   -1408.7291    77.032961    88.950692    81.275698    1602.6276   0.14278628   0.13663022   0.20352674   0.48294323  0.025453391  0.023857882  0.059534886   0.10884616 
  924000     -1796566    12066.562   -1448.3175    77.032961    88.950692    81.275698    1599.4617   0.14287552   0.13754196   0.20397117   0.48438864  0.025142454  0.024215043  0.061005294   0.11036279 
  925000   -1796602.1    12138.342   -1671.6872    77.032961    88.950692    81.275698    1608.9765   0.14331133   0.13836339   0.20438484   0.48605956      0.02492  0.024484824  0.062887081   0.11229191 
  926000   -1796607.9    12019.713   -1527.4817    77.032961    88.950692    81.275698    1593.2517   0.14351349   0.13789037    0.2038539   0.48525776  0.025616245  0.024310855  0.061688561   0.11161566 
  927000   -1796521.1    12063.028   -1207.6272    77.032961    88.950692    81.275698    1598.9934   0.14423252    0.1386511   0.20493198   0.48781559  0.024819331  0.023747127  0.062054283   0.11062074 
  928000   -1796631.5    12059.824   -2060.4039    77.032961    88.950692    81.275698    1598.5687   0.14435032   0.13695093   0.20549622   0.48679747  0.025130388  0.023812825  0.063516641   0.11245985 
  929000   -1796545.1    12101.222   -1122.1554    77.032961    88.950692    81.275698    1604.0561   0.14343222   0.13836427   0.20512545   0.48692193   0.02556144  0.024120582  0.062281866   0.11196389 
  930000   -1796595.7    12051.765   -1927.7903    77.032961    88.950692    81.275698    1597.5003   0.14355433   0.13780912   0.20520656   0.48657001   0.02465507  0.024500292  0.062860183   0.11201554 
  931000     -1796562    12042.238   -1753.4447    77.032961    88.950692    81.275698    1596.2375   0.14360951   0.13848954   0.20547393   0.48757298  0.024885222  0.023764003  0.062713482   0.11136271 
  932000   -1796664.4    12063.799   -1809.7944    77.032961    88.950692    81.275698    1599.0955   0.14275544   0.13724592   0.20470059   0.48470195  0.024546174  0.023596653  0.062942054   0.11108488 
  933000   -1796599.7    12029.657    -1335.706    77.032961    88.950692    81.275698    1594.5699   0.14282462   0.13829142   0.20323845   0.48435448   0.02526241  0.024325797  0.060528659   0.11011687 
  934000   -1796569.3    12104.229   -1915.4277    77.032961    88.950692    81.275698    1604.4547    0.1436675   0.13680346   0.20540558   0.48587654  0.025065662  0.023709296  0.061874954   0.11064991 
  935000     -1796611    12159.189   -1843.7699    77.032961    88.950692    81.275698    1611.7398   0.14469446    0.1379495   0.20639962   0.48904357  0.025116906  0.023811826  0.059900899   0.10882963 
  936000   -1796595.4    12110.549   -1913.0405    77.032961    88.950692    81.275698    1605.2924   0.14508544   0.13808133   0.20641527   0.48958204  0.024683332  0.024537557  0.059477265   0.10869815 
  937000   -1796565.9    12085.236   -1432.5027    77.032961    88.950692    81.275698    1601.9371   0.14336226   0.13698693   0.20674605   0.48709524   0.02415204  0.023687043  0.059881863   0.10772095 
  938000   -1796544.7     12039.77   -1650.8062    77.032961    88.950692    81.275698    1595.9105   0.14518552   0.13774756   0.20540508   0.48833816  0.025510315  0.024018999  0.059474832   0.10900415 
  939000   -1796596.2    12060.026   -1681.2711    77.032961    88.950692    81.275698    1598.5954   0.14413835   0.13679173   0.20557158   0.48650166  0.025427438  0.023824684  0.060288815   0.10954094 
  940000   -1796531.3    12109.717   -931.38703    77.032961    88.950692    81.275698     1605.182    0.1434806    0.1387267   0.20603279   0.48824009  0.024330055  0.024591378  0.061456195   0.11037763 
  941000   -1796521.8    12042.781   -1494.2471    77.032961    88.950692    81.275698    1596.3095   0.14447342   0.13871155   0.20669079   0.48987576   0.02455793  0.023790199   0.06179248   0.11014061 
  942000   -1796526.8    12025.432   -1708.3258    77.032961    88.950692    81.275698    1594.0098   0.14493102   0.13827192   0.20772233   0.49092527  0.025413096  0.023428318  0.062820378   0.11166179 
  943000   -1796571.8    12162.337   -1411.8312    77.032961    88.950692    81.275698    1612.1571   0.14675792   0.13980911   0.20947167    0.4960387  0.025912125  0.024519738   0.06118498   0.11161684 
  944000   -1796547.5     12020.75   -1593.5368    77.032961    88.950692    81.275698    1593.3892   0.14462689   0.13902568   0.20535005   0.48900262  0.024421444  0.023907948  0.060921267   0.10925066 
  945000   -1796606.8    12022.616   -2034.6236    77.032961    88.950692    81.275698    1593.6366   0.14578522   0.14007432   0.20784394   0.49370347  0.025459004  0.023800119  0.060340759   0.10959988 
  946000   -1796626.6    12125.426   -2017.3689    77.032961    88.950692    81.275698    1607.2644   0.14437351   0.13893735   0.20727479   0.49058565  0.024822161  0.024406299  0.060348443    0.1095769 
  947000   -1796585.8    12104.906   -1497.5759    77.032961    88.950692    81.275698    1604.5444   0.14391241   0.13876152   0.20690737    0.4895813   0.02495769   0.02416082  0.060987391    0.1101059 
  948000   -1796537.4    12013.981   -1828.3443    77.032961    88.950692    81.275698     1592.492   0.14613574   0.13934281   0.21046329   0.49594184  0.025520309  0.023867656  0.063447538    0.1128355 
  949000   -1796597.5    12156.918   -1592.0855    77.032961    88.950692    81.275698    1611.4387   0.14565648   0.13868139   0.20918724   0.49352512  0.024685483  0.023382534  0.063284304   0.11135232 
  950000   -1796600.6    12098.984   -1793.2452    77.032961    88.950692    81.275698    1603.7595     0.146925   0.14124629   0.21144259   0.49961389  0.025552596  0.024888119  0.064601647   0.11504236 
  951000   -1796558.2    12130.215   -1266.4483    77.032961    88.950692    81.275698    1607.8992   0.14692646   0.14056962   0.21059503   0.49809111  0.025035686  0.024401865  0.064375602   0.11381315 
  952000   -1796587.3    12056.888   -2086.3931    77.032961    88.950692    81.275698    1598.1794   0.14611422   0.14072962   0.21084678   0.49769062   0.02510943  0.024229508  0.063738658    0.1130776 
  953000     -1796603    12080.939   -1623.8319    77.032961    88.950692    81.275698    1601.3675   0.14651082   0.14022837   0.21042681   0.49716601   0.02512805  0.023893479  0.065822624   0.11484415 
  954000   -1796642.5     12141.18    -1680.637    77.032961    88.950692    81.275698    1609.3526   0.14606316   0.14170834   0.21202104   0.49979254  0.024995999  0.024189023  0.063798255   0.11298328 
  955000   -1796546.1    12164.628   -1227.2928    77.032961    88.950692    81.275698    1612.4607   0.14697067   0.14110523   0.21209586   0.50017176   0.02535209  0.024266216  0.065393643   0.11501195 
  956000   -1796597.1    12034.797   -1975.7431    77.032961    88.950692    81.275698    1595.2513   0.14668425   0.14157694   0.21153718   0.49979837  0.024293883  0.024308632  0.063758616   0.11236113 
  957000   -1796565.2    12059.289   -1545.1478    77.032961    88.950692    81.275698    1598.4976   0.14703381   0.14286485   0.21027324   0.50017189  0.024899463  0.024439786  0.064513121   0.11385237 
  958000   -1796619.2    12079.716   -2232.7582    77.032961    88.950692    81.275698    1601.2054   0.14615513    0.1420929   0.21082078   0.49906881  0.024212779  0.023912889  0.063585813   0.11171148 
  959000   -1796639.1    12062.763      -1983.6    77.032961    88.950692    81.275698    1598.9582    0.1468689   0.14188495   0.21040891   0.49916276  0.024788745  0.023927074  0.064335912   0.11305173 
  960000   -1796609.1    12066.122   -1614.5955    77.032961    88.950692    81.275698    1599.4035   0.14697824   0.14221267   0.21371207   0.50290297  0.025162221  0.024329745  0.064954085   0.11444605 
  961000   -1796637.1    12112.655   -1860.7572    77.032961    88.950692    81.275698    1605.5715   0.14790767   0.14208949   0.21213534    0.5021325  0.024896707  0.023714149   0.06331794    0.1119288 
  962000   -1796630.8    11996.227   -2202.4062    77.032961    88.950692    81.275698    1590.1387   0.14706277   0.14177538   0.21348108   0.50231923  0.024893171  0.023788347  0.067030648   0.11571217 
  963000   -1796651.9    12102.165   -1816.9079    77.032961    88.950692    81.275698    1604.1811   0.14733943   0.14051725   0.21132725   0.49918393  0.024582446  0.024244501  0.064912249    0.1137392 
  964000   -1796580.3    12058.742   -1840.6688    77.032961    88.950692    81.275698    1598.4252   0.14756579   0.14269673   0.21208705   0.50234958  0.024885002  0.023849035  0.064749089   0.11348313 
  965000   -1796593.8    12030.645   -1590.0126    77.032961    88.950692    81.275698    1594.7008   0.14797711   0.14134395   0.21069795   0.50001901  0.025624905  0.023591139  0.065247086   0.11446313 
  966000   -1796620.5    12079.455   -1981.2804    77.032961    88.950692    81.275698    1601.1708   0.14801321   0.14195813   0.21357848   0.50354983  0.024339855  0.023672186  0.065367195   0.11337924 
  967000   -1796546.1    12067.172   -1405.5856    77.032961    88.950692    81.275698    1599.5427   0.14806393   0.14330786   0.21416023   0.50553202  0.024830953  0.024416244  0.065030999    0.1142782 
  968000   -1796615.9    12097.226   -1615.5131    77.032961    88.950692    81.275698    1603.5264   0.14690202   0.14305746   0.21330454   0.50326403  0.023577914  0.023937146  0.064084012   0.11159907 
  969000   -1796550.1    12034.971   -1809.1717    77.032961    88.950692    81.275698    1595.2743   0.14668053   0.14293705   0.21440111    0.5040187  0.024976205  0.023797392  0.067002227   0.11577582 
  970000   -1796595.4     12106.12   -1712.8697    77.032961    88.950692    81.275698    1604.7053   0.14795555   0.14340354   0.21343551    0.5047946  0.025280834  0.024937795  0.064360904   0.11457953 
  971000   -1796542.3    12013.119   -1653.7907    77.032961    88.950692    81.275698    1592.3777   0.14930368   0.14276037   0.21430164   0.50636569  0.025547308  0.024531588  0.066074383   0.11615328 
  972000   -1796488.9    12076.581   -1591.2635    77.032961    88.950692    81.275698    1600.7898   0.14973001   0.14467073   0.21519125   0.50959199  0.025520522  0.024864514  0.065662533   0.11604757 
  973000   -1796646.8    12108.586   -2381.8682    77.032961    88.950692    81.275698    1605.0321   0.14783533   0.14379575   0.21604865   0.50767973   0.02453426  0.023897578  0.065271778   0.11370362 
  974000   -1796610.5     12032.04   -1693.6422    77.032961    88.950692    81.275698    1594.8857     0.148841   0.14354605   0.21414415    0.5065312  0.024960945  0.024463823  0.064032723   0.11345749 
  975000   -1796575.9    12102.158   -1812.0214    77.032961    88.950692    81.275698    1604.1801    0.1496058   0.14266376   0.21387802   0.50614758  0.025611518  0.024356808  0.063144972    0.1131133 
  976000   -1796540.5    12073.587   -775.74517    77.032961    88.950692    81.275698    1600.3929   0.14960847   0.14374247   0.21461188   0.50796283  0.025325694  0.024012951  0.064849544   0.11418819 
  977000   -1796552.2    12095.517   -1713.0423    77.032961    88.950692    81.275698    1603.2998   0.14884744   0.14413297   0.21343169    0.5064121  0.024634857  0.024701383  0.061701808   0.11103805 
  978000   -1796610.6    12016.911   -2066.2976    77.032961    88.950692    81.275698    1592.8803   0.14789897   0.14304936   0.21377067   0.50471901  0.024692225  0.023302209  0.063551201   0.11154564 
  979000   -1796602.6    12033.599   -2049.4685    77.032961    88.950692    81.275698    1595.0924   0.15003715    0.1441793   0.21431717   0.50853362  0.025480036  0.024110067  0.063618743   0.11320885 
  980000   -1796557.1    12039.953   -1646.2732    77.032961    88.950692    81.275698    1595.9347   0.15042976   0.14566814   0.21427856   0.51037647  0.025321926  0.024302579  0.064019766   0.11364427 
  981000   -1796599.4    12001.271    -1931.677    77.032961    88.950692    81.275698    1590.8072   0.15002274   0.14444578   0.21537308    0.5098416  0.024989793  0.024161697  0.065117382   0.11426887 
  982000   -1796497.7    12072.568   -1198.1424    77.032961    88.950692    81.275698    1600.2579   0.14964884   0.14392153   0.21725648   0.51082686  0.024767814  0.023831842  0.063595691   0.11219535 
  983000   -1796582.1    12040.798   -1634.2608    77.032961    88.950692    81.275698    1596.0466   0.14975309   0.14459531    0.2162157    0.5105641  0.024755982  0.024451415  0.064412272   0.11361967 
  984000   -1796559.9    12038.267   -2044.9082    77.032961    88.950692    81.275698    1595.7112   0.15046756   0.14599009   0.21509182   0.51154947  0.025192494  0.025059932   0.06256507    0.1128175 
  985000   -1796562.9    12092.185   -1736.0293    77.032961    88.950692    81.275698    1602.8582   0.15160011   0.14438328   0.21478404   0.51076743  0.025908942  0.022608721  0.063986741    0.1125044 
  986000   -1796607.2    11986.769   -1725.6364    77.032961    88.950692    81.275698    1588.8849     0.150851   0.14557799   0.21536209   0.51179108  0.025380802  0.024553503  0.062709512   0.11264382 
  987000   -1796554.6    12020.979   -1843.6332    77.032961    88.950692    81.275698    1593.4196   0.15100677   0.14530983   0.21855871   0.51487531  0.024856066  0.024085945  0.063160176   0.11210219 
  988000   -1796567.5    12084.168   -1290.1111    77.032961    88.950692    81.275698    1601.7955   0.15013824   0.14662317   0.21606581   0.51282721  0.024894575  0.024996066  0.061550619   0.11144126 
  989000   -1796578.3    12020.484   -1777.6283    77.032961    88.950692    81.275698    1593.3539   0.15129447   0.14556553   0.21752447   0.51438447  0.025167689  0.023988198  0.063926556   0.11308244 
  990000   -1796617.4    12028.445   -1930.6647    77.032961    88.950692    81.275698    1594.4092   0.15284157   0.14702254   0.21887638   0.51874049  0.025418317  0.024754166     0.060923   0.11109548 
  991000   -1796588.6     11981.41   -2061.6184    77.032961    88.950692    81.275698    1588.1746   0.15228392   0.14728285   0.21777084    0.5173376  0.026159074  0.024179871  0.059225573   0.10956452 
  992000   -1796542.2    12100.183   -1516.0682    77.032961    88.950692    81.275698    1603.9183   0.15128373   0.14624036     0.219693   0.51721708  0.024923079  0.023090017  0.063256234   0.11126933 
  993000   -1796592.8    12099.949   -1874.1713    77.032961    88.950692    81.275698    1603.8873   0.15132351   0.14927363   0.21833694   0.51893408  0.025003009  0.025195667  0.062582996   0.11278167 
  994000   -1796499.3    12041.791    -1422.252    77.032961    88.950692    81.275698    1596.1783   0.15231992   0.14805155   0.22058592   0.52095739  0.025138827   0.02425795  0.063763081   0.11315986 
  995000     -1796604    12086.469   -1875.7408    77.032961    88.950692    81.275698    1602.1005   0.15413553   0.14852267   0.22202492   0.52468311   0.02473978  0.024003839  0.063396759   0.11214038 
  996000   -1796558.5    12073.426   -1545.6669    77.032961    88.950692    81.275698    1600.3717   0.15310313   0.14830523   0.22134124    0.5227496  0.025070097  0.024449268   0.06353519   0.11305455 
  997000   -1796576.4    12025.538   -1844.1167    77.032961    88.950692    81.275698    1594.0239   0.15267164   0.14784556    0.2206122   0.52112941  0.025117939  0.023755585   0.06205717   0.11093069 
  998000     -1796613     12003.34   -2086.2594    77.032961    88.950692    81.275698    1591.0815   0.15308864   0.14964408   0.21997909   0.52271181  0.025944449  0.024725189  0.062942128   0.11361177 
  999000   -1796548.2    12102.272    -1643.091    77.032961    88.950692    81.275698    1604.1953   0.15309556   0.14977121   0.22293359   0.52580037  0.024964395  0.024426784  0.064748412   0.11413959 
 1000000   -1796635.6    12050.757   -1851.1128    77.032961    88.950692    81.275698    1597.3667   0.15402298   0.14948762   0.22032353   0.52383412  0.025876656   0.02455368  0.063071047   0.11350138 
Loop time of 119055 on 15 procs for 1000000 steps with 58365 atoms

Pair  time (%) = 86643.4 (72.776)
Kspce time (%) = 28290 (23.7621)
Neigh time (%) = 1650.56 (1.38639)
Comm  time (%) = 1766.28 (1.48359)
Outpt time (%) = 1.71763 (0.00144272)
Other time (%) = 702.979 (0.590466)

Nlocal:    3891 ave 3924 max 3824 min
Histogram: 1 2 0 0 1 2 0 0 4 5
Nghost:    18549.3 ave 18692 max 18426 min
Histogram: 5 1 0 0 0 3 0 2 2 2
Neighs:    1.4952e+06 ave 1.53567e+06 max 1.44342e+06 min
Histogram: 1 1 0 2 1 3 3 0 2 2

Total # of neighbors = 22428019
Ave neighs/atom = 384.272
Neighbor list builds = 26881
Dangerous builds = 0
