LAMMPS (28 Jun 2014)
# ------------------ INITIALIZATION -------------------
units		metal           #check!!!!!
boundary	p p p
dimension	3
atom_style    charge
shell		mkdir  xyz
shell         mkdir  dump

variable      mytemp equal  1600

# -------------------- FORCE FIELDS ----------------------
pair_style buck/coul/long 10.0 10.0

read_data	NPT_relaxed_1600.data
  orthogonal box = (0.146235 0.168859 0.154289) to (77.1548 89.0913 81.4042)
  1 by 5 by 3 MPI processor grid
  reading atoms ...
  58275 atoms
  reading velocities ...
  58275 velocities

pair_coeff    * * 1e-30 1e-30 0.0
pair_coeff    1 2 1204.18 0.3165   0.0
pair_coeff    1 1 9547.96 0.21916  32.0

kspace_style    pppm 0.0001

## Define group
group oxygen type 1
34965 atoms in group oxygen
group chromium type 2
23310 atoms in group chromium


## --------------------- NVT  --------------------
compute allmsd all displace/atom

#dump          2 all custom 25000  dump/dump id type xu yu zu c_allmsd[1] c_allmsd[2] c_allmsd[3] c_allmsd[4]
#dump          1 all xyz 25000 xyz/all.xyz
#dump_modify   1 element O Cr



compute   Omsd oxygen msd com yes
compute   Crmsd chromium msd com yes
variable  OMSDX equal "c_Omsd[1]"
variable  OMSDY equal "c_Omsd[2]"
variable  OMSDZ equal "c_Omsd[3]"
variable  OMSDAll equal "c_Omsd[4]"

variable  CrMSDX equal "c_Crmsd[1]"
variable  CrMSDY equal "c_Crmsd[2]"
variable  CrMSDZ equal "c_Crmsd[3]"
variable  CrMSDAll equal "c_Crmsd[4]"

thermo          1000
thermo_style    custom step pe ke press lx ly lz temp c_Omsd[1]  c_Omsd[2]  c_Omsd[3]  c_Omsd[4]  c_Crmsd[1]  c_Crmsd[2]  c_Crmsd[3]  c_Crmsd[4]


fix          1 all print 100 "${OMSDX}   ${OMSDY}   ${OMSDZ}  ${OMSDAll}  ${CrMSDX}   ${CrMSDY}   ${CrMSDZ}  ${CrMSDAll}" file MSD.data screen no
fix          3 all nvt temp ${mytemp} ${mytemp} 0.01
fix          3 all nvt temp 1600 ${mytemp} 0.01
fix          3 all nvt temp 1600 1600 0.01

run      1000000
PPPM initialization ...
  G vector (1/distance) = 0.308964
  grid = 72 80 75
  stencil order = 5
  estimated absolute RMS force accuracy = 0.00178109
  estimated relative force accuracy = 0.00012369
  using double precision FFTs
  3d grid and FFT values/proc = 58144 28800
Memory usage per processor = 12.6276 Mbytes
Step PotEng KinEng Press Lx Ly Lz Temp Omsd[1] Omsd[2] Omsd[3] Omsd[4] Crmsd[1] Crmsd[2] Crmsd[3] Crmsd[4] 
       0   -1793870.4    12065.043   -822.12661     77.00853    88.922483    81.249922    1601.7303 5.0835086e-29 8.343908e-29 5.1100769e-29 1.8537494e-28 5.0814149e-29 1.2061348e-29 5.0896453e-29 1.1377195e-28 
    1000   -1793887.8    11960.856   -648.87554     77.00853    88.922483    81.249922    1587.8987  0.029489139  0.029314286   0.04074259  0.099546015  0.024284642  0.023630454   0.03266894  0.080584035 
    2000   -1793860.6    12012.129   -1062.3659     77.00853    88.922483    81.249922    1594.7056  0.030381724  0.030085645  0.038106363  0.098573733  0.024554407     0.024527  0.030245725  0.079327132 
    3000   -1793815.2    12065.248   -653.48411     77.00853    88.922483    81.249922    1601.7576  0.030097961  0.030183902  0.038929517  0.099211379  0.024121661  0.023927867  0.031093198  0.079142725 
    4000   -1793877.7    12092.488   -743.06773     77.00853    88.922483    81.249922    1605.3739   0.03029599  0.030951767  0.039088334   0.10033609  0.024239737  0.024510414  0.031435243  0.080185393 
    5000   -1793857.5      12022.2   -570.42298     77.00853    88.922483    81.249922    1596.0426  0.029960354  0.030773732   0.03765882  0.098392907   0.02372086  0.024537697  0.029890937  0.078149494 
    6000   -1793836.6    12025.387   -1230.0472     77.00853    88.922483    81.249922    1596.4657  0.031338049  0.030946903  0.039161516   0.10144647  0.025105827  0.024430227  0.031661485  0.081197539 
    7000   -1793814.3    12001.481   -921.62788     77.00853    88.922483    81.249922     1593.292  0.030417245  0.030639096  0.038079316  0.099135658  0.024079887  0.023804737  0.029660331  0.077544954 
    8000   -1793902.7    12026.905   -654.80483     77.00853    88.922483    81.249922    1596.6672  0.030581491  0.031609214  0.040227078   0.10241778  0.024373428  0.024530112  0.032145772  0.081049312 
    9000   -1793795.6    12039.931   -320.38795     77.00853    88.922483    81.249922    1598.3965  0.029527657    0.0314865  0.039305772   0.10031993  0.023351853  0.024502891  0.030923149  0.078777893 
   10000   -1793805.3    12021.929   -375.97032     77.00853    88.922483    81.249922    1596.0066  0.030989807  0.031284171  0.039271142   0.10154512  0.023941142  0.023947668  0.031530888  0.079419698 
   11000   -1793852.5     11957.21   -1128.9669     77.00853    88.922483    81.249922    1587.4146  0.031781433  0.031579633  0.040314593   0.10367566   0.02490851  0.024217423  0.032150087   0.08127602 
   12000   -1793878.9    12065.941   -537.16011     77.00853    88.922483    81.249922    1601.8496  0.031249503  0.032347592  0.037709976   0.10130707  0.024480256  0.025271127  0.029813945  0.079565328 
   13000   -1793774.4    11977.892   -134.07796     77.00853    88.922483    81.249922    1590.1603  0.031377488  0.031458467  0.039795385   0.10263134  0.024670245  0.024675135  0.032124478  0.081469858 
   14000   -1793918.1    12034.973    -1362.744     77.00853    88.922483    81.249922    1597.7384  0.029746512  0.031325836  0.038371735  0.099444083  0.023299011  0.024396101  0.030528858   0.07822397 
   15000   -1793817.4    12083.758   -621.92817     77.00853    88.922483    81.249922    1604.2149  0.030927038  0.031918723  0.039607212   0.10245297  0.024227157  0.025219821   0.03083343  0.080280408 
   16000   -1793870.9    12105.897   -423.24066     77.00853    88.922483    81.249922     1607.154  0.032488728  0.031717656  0.041074831   0.10528121  0.026176178  0.025121601  0.032543621    0.0838414 
   17000   -1793822.5    12051.448   -738.94997     77.00853    88.922483    81.249922    1599.9255  0.031978295  0.031106686  0.038587978   0.10167296  0.025163732   0.02435014  0.031009551  0.080523423 
   18000   -1793863.2    12084.943    -692.7777     77.00853    88.922483    81.249922    1604.3723  0.031547482  0.032905139   0.04060398    0.1050566  0.024493688  0.025217117  0.032628387  0.082339193 
   19000   -1793839.9    12025.742   -665.29417     77.00853    88.922483    81.249922    1596.5128  0.030976546  0.032519476  0.038625526   0.10212155  0.023606211   0.02507973  0.030790139  0.079476081 
   20000   -1793865.3    12003.101   -136.32141     77.00853    88.922483    81.249922     1593.507   0.03118188  0.030919889  0.039053395   0.10115516  0.024389445   0.02408658  0.031553499  0.080029524 
   21000   -1793862.4     12008.75   -712.60405     77.00853    88.922483    81.249922     1594.257  0.032322984  0.031555602  0.039343813    0.1032224   0.02455726    0.0250332  0.030672629  0.080263088 
   22000   -1793867.1    12015.953   -882.84157     77.00853    88.922483    81.249922    1595.2133  0.031295128  0.031872754  0.038846287   0.10201417  0.024276289  0.024784754  0.030827187   0.07988823 
   23000   -1793874.3    12053.354   -834.06176     77.00853    88.922483    81.249922    1600.1785  0.031874368  0.031818869   0.04129407   0.10498731  0.025124406  0.025055717  0.033975152  0.084155275 
   24000   -1793811.4    12052.303   -438.90104     77.00853    88.922483    81.249922     1600.039   0.03131659  0.031553709  0.038633118   0.10150342  0.023735758  0.024429276  0.030716628  0.078881663 
   25000   -1793805.5    11996.322   -375.89572     77.00853    88.922483    81.249922     1592.607  0.032797322  0.031639156  0.041192837   0.10562931  0.025168203  0.024835678  0.032655896  0.082659777 
   26000   -1793830.1     12029.89   -471.97447     77.00853    88.922483    81.249922    1597.0635  0.031321141  0.031021764  0.039434802   0.10177771  0.024067124  0.025097306  0.031732548  0.080896978 
   27000   -1793799.4    11973.364    -951.6902     77.00853    88.922483    81.249922    1589.5593  0.031976773  0.030627742   0.03843545   0.10103996  0.024362021  0.023423757  0.030499597  0.078285375 
   28000   -1793749.7     12119.52    215.28626     77.00853    88.922483    81.249922    1608.9626   0.03250959  0.032068288  0.041354057   0.10593194  0.024577349  0.024814916  0.034059321  0.083451585 
   29000   -1793844.5    12102.435   -533.90549     77.00853    88.922483    81.249922    1606.6945  0.031862453  0.031371141  0.038752716   0.10198631    0.0238644  0.024753732  0.030938173  0.079556305 
   30000   -1793839.5    12047.584   -236.94385     77.00853    88.922483    81.249922    1599.4126  0.032882279  0.030929865  0.040260104   0.10407225  0.025072507  0.024483498  0.032075677  0.081631682 
   31000   -1793908.2    12058.964   -940.46949     77.00853    88.922483    81.249922    1600.9234   0.03134305  0.031952429  0.039584522      0.10288    0.0235132  0.024651395   0.03154208  0.079706675 
   32000   -1793843.5     12085.31   -864.31681     77.00853    88.922483    81.249922    1604.4209  0.032425962  0.031725046  0.038711639   0.10286265  0.024839156  0.024631343   0.03073341  0.080203908 
   33000   -1793836.2    12102.636   -606.56945     77.00853    88.922483    81.249922    1606.7211   0.03168329  0.032591895  0.040516663   0.10479185  0.024387091  0.025418872  0.032454063  0.082260027 
   34000   -1793846.4    12106.924   -908.48786     77.00853    88.922483    81.249922    1607.2904  0.032181022  0.031894295  0.038317214   0.10239253  0.025043152  0.024703022  0.030983806   0.08072998 
   35000   -1793860.5    11994.829   -1106.4445     77.00853    88.922483    81.249922    1592.4089  0.032921522  0.031565578  0.040988928   0.10547603  0.025587448  0.025410663  0.033576418  0.084574529 
   36000   -1793824.3    12019.302   -523.75834     77.00853    88.922483    81.249922    1595.6579   0.03119517  0.032508537  0.038276302   0.10198001  0.023445643  0.025549283  0.030376895   0.07937182 
   37000   -1793863.8    12054.503   -393.70409     77.00853    88.922483    81.249922     1600.331  0.032598293  0.032192152  0.039898536   0.10468898   0.02470935  0.025131064  0.031609998  0.081450412 
   38000   -1793848.2    12054.701   -405.55218     77.00853    88.922483    81.249922    1600.3574  0.032789885  0.032369529  0.040356265   0.10551568  0.024659787  0.025369099  0.032498226  0.082527112 
   39000   -1793886.7    12033.834   -434.52964     77.00853    88.922483    81.249922    1597.5871  0.032356343  0.032060654  0.037746578   0.10216357   0.02492381  0.025019975  0.029712935  0.079656719 
   40000     -1793761    12073.473   -456.83237     77.00853    88.922483    81.249922    1602.8495  0.032804677  0.032250044  0.041045419   0.10610014  0.025251137  0.025308965  0.032619461  0.083179562 
   41000   -1793871.3    11967.859   -375.66049     77.00853    88.922483    81.249922    1588.8285  0.031495272  0.032691216  0.038289451   0.10247594  0.023732161  0.025260917   0.03010405  0.079097129 
   42000     -1793881    12075.023   -1085.0882     77.00853    88.922483    81.249922    1603.0553  0.032619845  0.031971662  0.039834228   0.10442573  0.025303552  0.024840156  0.031882358  0.082026066 
   43000   -1793869.9    12023.454   -445.59121     77.00853    88.922483    81.249922    1596.2091  0.032292581  0.032408586  0.039016687   0.10371785  0.024943929  0.024809298  0.030718082  0.080471309 
   44000   -1793827.4    12077.538   -727.85624     77.00853    88.922483    81.249922    1603.3892  0.032350314  0.031893364  0.038521127   0.10276481  0.025167467  0.025095044  0.030756368  0.081018879 
   45000   -1793834.5    12118.006   -192.90072     77.00853    88.922483    81.249922    1608.7616  0.031779959  0.032522815  0.040765253   0.10506803  0.024756976  0.025238657   0.03301849  0.083014123 
   46000   -1793822.8    12007.459   -1130.2485     77.00853    88.922483    81.249922    1594.0856  0.030984891  0.031819487  0.038297085   0.10110146  0.023897705   0.02521095  0.030200643  0.079309297 
   47000   -1793831.9    12036.334   -1021.0805     77.00853    88.922483    81.249922    1597.9191  0.033829421  0.032333973  0.041156322   0.10731972  0.026054026  0.025280035  0.032510159   0.08384422 
   48000   -1793836.4    12068.601   -819.50361     77.00853    88.922483    81.249922    1602.2027  0.031394552  0.032645929  0.038856397   0.10289688   0.02368165   0.02470731  0.031966048  0.080355007 
   49000   -1793878.4     11992.94   -707.90466     77.00853    88.922483    81.249922    1592.1581  0.031845788  0.032856803  0.039025019   0.10372761  0.024699678  0.025411721   0.03123328  0.081344679 
   50000   -1793786.3    11982.798   -584.59166     77.00853    88.922483    81.249922    1590.8117  0.032063631  0.032430225  0.040476611   0.10497047  0.024673099  0.025365076  0.032847993  0.082886169 
   51000   -1793893.6    12033.702   -898.22161     77.00853    88.922483    81.249922    1597.5696  0.032463605  0.032976746  0.038196998   0.10363735  0.024745022  0.025840104  0.030336282  0.080921408 
   52000   -1793777.4    12019.126   -61.627903     77.00853    88.922483    81.249922    1595.6345  0.032459529  0.033333184  0.040565187    0.1063579  0.024806766  0.025083502  0.032417687  0.082307955 
   53000   -1793775.1    12014.939   -277.77859     77.00853    88.922483    81.249922    1595.0786  0.032388406  0.033097602  0.039264837   0.10475084   0.02459779  0.024947395  0.031159086  0.080704271 
   54000   -1793843.6    12037.024   -578.00458     77.00853    88.922483    81.249922    1598.0106  0.032466504   0.03195846  0.040327571   0.10475253  0.024958652  0.025226392  0.032327025  0.082512069 
   55000   -1793825.5    12030.875   -743.07167     77.00853    88.922483    81.249922    1597.1943  0.031700035  0.032327889  0.039799295   0.10382722  0.024535744   0.02542249  0.031971067  0.081929302 
   56000   -1793796.6    11987.546    -106.9939     77.00853    88.922483    81.249922    1591.4419  0.032184515  0.032246799  0.038386573   0.10281789  0.024407766  0.025769974  0.030331015  0.080508755 
   57000   -1793815.4    12100.873    24.573929     77.00853    88.922483    81.249922    1606.4871  0.032967729  0.031492858  0.040851472   0.10531206   0.02470557  0.025136178  0.032126898  0.081968646 
   58000   -1793812.3     12040.22   -603.75953     77.00853    88.922483    81.249922    1598.4349  0.032605222  0.031700911  0.039018827   0.10332496  0.024640352  0.024812832  0.031171531  0.080624714 
   59000   -1793863.1    12096.506   -648.29329     77.00853    88.922483    81.249922    1605.9073  0.032913133  0.033088921  0.039985266   0.10598732  0.024960994  0.025924582  0.032372138  0.083257714 
   60000   -1793790.5    12034.512    478.22006     77.00853    88.922483    81.249922    1597.6772  0.032581895   0.03094151  0.039432636   0.10295604  0.024915592  0.025038519  0.031895417  0.081849527 
   61000   -1793887.6    11984.338   -847.09424     77.00853    88.922483    81.249922    1591.0161  0.032590225   0.03160204  0.038950701   0.10314297  0.024723626  0.025281249  0.031204698  0.081209573 
   62000   -1793813.9    12123.241   -665.60991     77.00853    88.922483    81.249922    1609.4567  0.033044533  0.031757352  0.039755146   0.10455703  0.024829306  0.025124842  0.032045024  0.081999172 
   63000   -1793923.3    12053.209   -923.48776     77.00853    88.922483    81.249922    1600.1593  0.031865168    0.0320488  0.039422528    0.1033365  0.023998746  0.025316482   0.03177233  0.081087557 
   64000     -1793918     12117.14   -851.28879     77.00853    88.922483    81.249922    1608.6467  0.032669561  0.032134067  0.040826648   0.10563028  0.024829319  0.025078925  0.032798473  0.082706716 
   65000   -1793858.3    12046.783   -851.12879     77.00853    88.922483    81.249922    1599.3061  0.032387994  0.032250641  0.039111874   0.10375051  0.024361691  0.025273071   0.03039484  0.080029601 
   66000   -1793849.8    12031.976    -528.5525     77.00853    88.922483    81.249922    1597.3404  0.032863616  0.032524183  0.039102522   0.10449032  0.024700548  0.025447919  0.031096731  0.081245198 
   67000   -1793842.3    12063.233    -230.8505     77.00853    88.922483    81.249922    1601.4901  0.033252793  0.032181066  0.039687729   0.10512159   0.02503234   0.02520944  0.031460651   0.08170243 
   68000   -1793931.6     12098.69   -1160.1253     77.00853    88.922483    81.249922    1606.1972  0.032064621  0.032239072  0.039749172   0.10405286  0.024726059  0.025637929  0.031604276  0.081968264 
   69000   -1793850.6     12024.04   -545.63525     77.00853    88.922483    81.249922    1596.2869  0.031761832  0.031821156  0.040060047   0.10364303  0.024407913   0.02502659  0.031976731  0.081411234 
   70000     -1793856    12028.123   -720.05473     77.00853    88.922483    81.249922    1596.8289  0.031731615  0.031631527   0.03935102   0.10271416  0.023948371  0.025239297  0.031261812   0.08044948 
   71000     -1793857    12045.708   -733.34225     77.00853    88.922483    81.249922    1599.1634  0.032611562  0.031694221  0.040211529   0.10451731  0.024807303  0.025139832  0.032505986  0.082453121 
   72000   -1793859.7    11986.928   -329.54473     77.00853    88.922483    81.249922    1591.3599  0.031717242  0.031970077  0.038995805   0.10268312  0.024149286  0.025171462  0.030993577  0.080314325 
   73000   -1793784.5    12060.206   -415.92475     77.00853    88.922483    81.249922    1601.0882  0.032986711  0.032000899  0.040368944   0.10535656  0.025050404  0.025469332  0.032798539  0.083318275 
   74000   -1793827.6    12010.859   -697.69626     77.00853    88.922483    81.249922     1594.537  0.031721254  0.031955193  0.039372369   0.10304882  0.024309989  0.025694538  0.031328277  0.081332805 
   75000   -1793810.8     12015.28   -385.36195     77.00853    88.922483    81.249922     1595.124   0.03224551  0.031850996  0.038845499     0.102942  0.024809595  0.025939559   0.03114875  0.081897905 
   76000   -1793802.4    11986.181   -430.08475     77.00853    88.922483    81.249922    1591.2608  0.032411113  0.032378734  0.041242483   0.10603233  0.024787359  0.025430481  0.033196672  0.083414513 
   77000   -1793729.7    12026.968   -543.43966     77.00853    88.922483    81.249922    1596.6756   0.03166142  0.032774923  0.039961431   0.10439777  0.025177208  0.025849036   0.03218837  0.083214614 
   78000   -1793798.2    11992.215   -172.99799     77.00853    88.922483    81.249922    1592.0619   0.03181106  0.032697837  0.040564754   0.10507365  0.025812844  0.025480138  0.032398154  0.083691136 
   79000   -1793808.6    12058.262   -788.48497     77.00853    88.922483    81.249922    1600.8301  0.031832862  0.032625612  0.039891776   0.10435025  0.025051101  0.025731901  0.032176707  0.082959709 
   80000   -1793829.3    12063.025    -486.7955     77.00853    88.922483    81.249922    1601.4625  0.031901302  0.032540965  0.039169551   0.10361182  0.025076552  0.025905007  0.031338899  0.082320458 
   81000   -1793811.7    12085.896   -426.68351     77.00853    88.922483    81.249922    1604.4987  0.031291995  0.033441434  0.039724038   0.10445747  0.024359569  0.025539755   0.03232527  0.082224593 
   82000   -1793828.1     12012.84   -487.72618     77.00853    88.922483    81.249922    1594.7999  0.032519109  0.033064144  0.038396025   0.10397928  0.025243963  0.025359988  0.030620331  0.081224282 
   83000   -1793907.4    12055.233   -1067.3587     77.00853    88.922483    81.249922     1600.428  0.031603829  0.032598655  0.040022022   0.10422451  0.024707217  0.025906498  0.032322422  0.082936137 
   84000   -1793815.3      12119.1   -467.00119     77.00853    88.922483    81.249922    1608.9069  0.032178609    0.0327366  0.039520685   0.10443589  0.025118179  0.026455764  0.032038646   0.08361259 
   85000   -1793827.3    12034.909   -27.870877     77.00853    88.922483    81.249922    1597.7298  0.032379467  0.031755988  0.039542228   0.10367768  0.025426335  0.025693173   0.03174425  0.082863758 
   86000     -1793868    12004.841   -755.73445     77.00853    88.922483    81.249922    1593.7381   0.03172981  0.031833732  0.040027992   0.10359153  0.024076168  0.026231678  0.032209944   0.08251779 
   87000   -1793856.5    12027.342   -468.60023     77.00853    88.922483    81.249922    1596.7253  0.033026964   0.03147007  0.039325379   0.10382241  0.025731513  0.026042534  0.031017876  0.082791923 
   88000   -1793908.3     12066.34   -656.74742     77.00853    88.922483    81.249922    1601.9026  0.032530214  0.031444106  0.040042133   0.10401645  0.025164533  0.026063252  0.032504937  0.083732721 
   89000   -1793878.7    12026.087   -695.14537     77.00853    88.922483    81.249922    1596.5587  0.031938641  0.031647677  0.038666826   0.10225314  0.024655991  0.025852993  0.031188008  0.081696992 
   90000   -1793876.9    12038.536   -567.07823     77.00853    88.922483    81.249922    1598.2113  0.032120229  0.031916359  0.039424342   0.10346093  0.025139795   0.02594665  0.031263982  0.082350426 
   91000   -1793819.5    12009.395   -657.63672     77.00853    88.922483    81.249922    1594.3427  0.031664669   0.03176179    0.0398535   0.10327996  0.024759532  0.025768277  0.031965302  0.082493111 
   92000     -1793881    11959.461   -1310.2021     77.00853    88.922483    81.249922    1587.7136  0.032866609  0.031305479  0.039641177   0.10381327  0.025283771  0.025733399  0.032107216  0.083124386 
   93000   -1793862.9     12118.15   -408.05219     77.00853    88.922483    81.249922    1608.7808  0.032685579    0.0307959  0.039657232   0.10313871  0.025544843  0.025305314  0.031767866  0.082618023 
   94000   -1793835.3    12065.506   -243.51119     77.00853    88.922483    81.249922    1601.7918  0.032577355  0.032188954  0.040167788    0.1049341  0.025591957  0.025674698  0.032217902  0.083484557 
   95000   -1793866.8    11995.271   -759.40483     77.00853    88.922483    81.249922    1592.4676  0.031524779  0.032016218  0.040239357   0.10378035  0.024568952  0.026272261   0.03233483  0.083176043 
   96000   -1793842.3    12031.445   -48.829595     77.00853    88.922483    81.249922      1597.27  0.031898012  0.031891065  0.039387873   0.10317695  0.025202675  0.025911735  0.031375294  0.082489703 
   97000   -1793847.7    12055.653   -604.93857     77.00853    88.922483    81.249922    1600.4837  0.032037673  0.032194729  0.039601625   0.10383403  0.025028318  0.026495118  0.031740832  0.083264268 
   98000   -1793851.7    12083.488   -11.920186     77.00853    88.922483    81.249922    1604.1791  0.031712789  0.032346961  0.040510512   0.10457026  0.025344817  0.026163145  0.032790307  0.084298269 
   99000   -1793815.4    12013.354   -539.30469     77.00853    88.922483    81.249922    1594.8683  0.032318215  0.032065384  0.039047077   0.10343068   0.02529764  0.025384923  0.030930108  0.081612672 
  100000     -1793853    12088.877   -381.20473     77.00853    88.922483    81.249922    1604.8946  0.032346777  0.031871155  0.039852193   0.10407013  0.025923926  0.025823375  0.033035297  0.084782599 
  101000   -1793879.1    12023.984   -1090.4005     77.00853    88.922483    81.249922    1596.2795   0.03148869  0.032755427  0.039797054   0.10404117   0.02536058  0.026715582  0.032131052  0.084207215 
  102000   -1793861.4    12073.597   -456.71769     77.00853    88.922483    81.249922    1602.8659  0.031455875  0.032668592  0.040772478   0.10489695  0.025496675  0.025931042  0.032851242  0.084278959 
  103000   -1793779.7    12079.448    447.92437     77.00853    88.922483    81.249922    1603.6427  0.031069933  0.032404727  0.040050063   0.10352472  0.025011434  0.025450534  0.032056556  0.082518525 
  104000   -1793819.1    12080.096   -679.13184     77.00853    88.922483    81.249922    1603.7288  0.032054478  0.031684981  0.039212343    0.1029518  0.025819891  0.025017312  0.032128169  0.082965372 
  105000     -1793855    11983.035   -1202.6397     77.00853    88.922483    81.249922    1590.8432  0.033180406  0.032367564  0.039368319   0.10491629  0.026400809  0.025428007  0.031184912  0.083013729 
  106000   -1793810.2        12018   -429.43207     77.00853    88.922483    81.249922     1595.485  0.032525747  0.032313914  0.040145344     0.104985  0.026207521  0.025572649  0.032626542  0.084406712 
  107000   -1793809.3    12021.723   -687.70482     77.00853    88.922483    81.249922    1595.9793  0.031586307   0.03214511  0.041064957   0.10479637  0.024866803  0.025590463  0.033465352  0.083922618 
  108000     -1793882    12057.885   -435.13981     77.00853    88.922483    81.249922    1600.7801  0.031831817  0.031842486  0.038864684   0.10253899  0.024982455  0.026013463   0.03157118  0.082567098 
  109000   -1793893.8    12092.258   -654.89039     77.00853    88.922483    81.249922    1605.3434  0.032316771  0.031136927  0.040209525   0.10366322  0.025885436  0.024869956  0.032353649  0.083109041 
  110000     -1793841    12028.943   -739.33674     77.00853    88.922483    81.249922    1596.9378  0.032052893  0.031969144  0.039503406   0.10352544  0.025304213  0.025717765  0.032073781  0.083095759 
  111000   -1793873.7    12065.129   -986.06655     77.00853    88.922483    81.249922    1601.7418   0.03186823  0.031736477  0.039372981   0.10297769  0.024852628  0.025574659  0.031306191  0.081733479 
  112000   -1793824.9    12035.375   -581.20751     77.00853    88.922483    81.249922    1597.7917  0.032010903  0.032138281  0.039697594   0.10384678   0.02537958  0.025864619  0.031627018  0.082871217 
  113000   -1793876.7    12056.923   -876.77048     77.00853    88.922483    81.249922    1600.6524  0.032008095  0.032239121  0.038941975   0.10318919  0.025275989  0.025368119   0.03085585  0.081499957 
  114000     -1793774    12070.952   -296.13467     77.00853    88.922483    81.249922    1602.5148  0.032244323  0.032650379  0.039473318   0.10436802  0.025181372  0.025235621  0.032664811  0.083081804 
  115000   -1793864.9    12118.296   -795.20147     77.00853    88.922483    81.249922    1608.8002  0.032265888  0.032392945  0.039659279   0.10431811  0.025812323  0.025583226  0.031644387  0.083039937 
  116000   -1793818.4    12030.972   -188.07574     77.00853    88.922483    81.249922    1597.2071  0.032187575  0.032813164  0.039580753   0.10458149  0.025451908  0.026598874  0.032095846  0.084146628 
  117000   -1793842.2    12003.604   -282.41941     77.00853    88.922483    81.249922    1593.5739  0.031892688  0.033077305   0.03925238   0.10422237  0.025847799  0.026022938  0.032346728  0.084217464 
  118000   -1793922.8     12031.59   -1024.8321     77.00853    88.922483    81.249922    1597.2892  0.032294708  0.032033578  0.038724784   0.10305307  0.025339994  0.025874147  0.031415837  0.082629978 
  119000   -1793832.4    12081.952   -355.92806     77.00853    88.922483    81.249922    1603.9751  0.032619855  0.032611122  0.039726304   0.10495728  0.025886427  0.025907518  0.031595945   0.08338989 
  120000   -1793821.3    11946.745   -260.82868     77.00853    88.922483    81.249922    1586.0254  0.032076856  0.031744556  0.038682134   0.10250355  0.025722688  0.025471846  0.031729892  0.082924425 
  121000   -1793855.2    11994.902   -735.78645     77.00853    88.922483    81.249922    1592.4185   0.03264655   0.03201322  0.040347603   0.10500737  0.026443735  0.025748767   0.03263726  0.084829762 
  122000   -1793809.8     11997.46   -677.62516     77.00853    88.922483    81.249922    1592.7582  0.032238326  0.032107258  0.039315985   0.10366157  0.025780138  0.026059539  0.031908834  0.083748511 
  123000   -1793854.6    12110.356   -740.51902     77.00853    88.922483    81.249922     1607.746  0.032680167  0.032056589  0.039456807   0.10419356  0.026507732  0.025721881  0.032103851  0.084333465 
  124000   -1793874.8    12068.075   -518.36573     77.00853    88.922483    81.249922    1602.1329  0.033007637  0.031805081  0.039988482    0.1048012  0.026326615  0.025461632  0.032825679  0.084613926 
  125000   -1793806.3     12039.06   -234.09271     77.00853    88.922483    81.249922    1598.2809   0.03241144  0.032108778  0.039086907   0.10360713  0.025906001  0.026090327  0.032072787  0.084069116 
  126000   -1793857.3    12051.743   -591.49953     77.00853    88.922483    81.249922    1599.9646  0.032315284  0.032347417  0.040156717   0.10481942  0.025884242  0.025770744  0.032689737  0.084344723 
  127000   -1793854.4    12042.187   -795.86828     77.00853    88.922483    81.249922     1598.696  0.032720184  0.032615807  0.038454385   0.10379038  0.025562042  0.026025174  0.030739035   0.08232625 
  128000   -1793859.7     12013.43   -747.26373     77.00853    88.922483    81.249922    1594.8783  0.032386631  0.031501645  0.039961807   0.10385008  0.025679531  0.025216653  0.032128734  0.083024918 
  129000   -1793858.4    12072.757   -359.84238     77.00853    88.922483    81.249922    1602.7545  0.032042897   0.03218175  0.040200402   0.10442505  0.025725749   0.02577283  0.032185858  0.083684437 
  130000   -1793871.4    12116.986   -506.55251     77.00853    88.922483    81.249922    1608.6262  0.032187735  0.032197405  0.039508929   0.10389407   0.02652662  0.026090615  0.031748477  0.084365712 
  131000   -1793822.1    11992.242   -374.37962     77.00853    88.922483    81.249922    1592.0655  0.032383198  0.031600011    0.0404568   0.10444001  0.025509708  0.025462643  0.032942438  0.083914789 
  132000   -1793900.2    11996.303   -1298.3997     77.00853    88.922483    81.249922    1592.6045  0.031483712   0.03214364  0.038264044    0.1018914  0.025119988  0.025843849  0.031577959  0.082541796 
  133000     -1793878    12055.565   -997.24693     77.00853    88.922483    81.249922     1600.472  0.031732571  0.033206906  0.040183535   0.10512301    0.0255345  0.026398206  0.032116994    0.0840497 
  134000   -1793813.1    12046.202    -717.0717     77.00853    88.922483    81.249922    1599.2291   0.03214554   0.03225786  0.038403447   0.10280685  0.025889578  0.025957838   0.03094603  0.082793447 
  135000   -1793845.4    12016.978   -679.35152     77.00853    88.922483    81.249922    1595.3493  0.032032698  0.032191769  0.039808606   0.10403307  0.025557234  0.025492773  0.032401438  0.083451445 
  136000   -1793869.1    12117.781   -587.71601     77.00853    88.922483    81.249922    1608.7317  0.031951766  0.032591681  0.041594955    0.1061384  0.025922987  0.025919822  0.033602792  0.085445602 
  137000   -1793838.7    12078.421     -737.566     77.00853    88.922483    81.249922    1603.5063  0.032128685  0.032621297  0.038883735   0.10363372  0.025557738  0.026012771   0.03181836  0.083388869 
  138000   -1793792.5    12026.764   -821.42868     77.00853    88.922483    81.249922    1596.6486  0.032491587  0.032171744  0.039537498   0.10420083  0.025900266  0.025470512  0.031749687  0.083120465 
  139000   -1793945.1      12116.1   -911.00482     77.00853    88.922483    81.249922    1608.5086  0.032168734  0.032987596  0.039080836   0.10423717  0.025722689  0.026448484  0.031719324  0.083890496 
  140000   -1793860.9    12130.696   -698.30245     77.00853    88.922483    81.249922    1610.4463  0.032319453  0.031625868  0.038602633   0.10254795  0.025772676  0.025169797  0.031542511  0.082484984 
  141000   -1793777.4    12097.042   -196.32748     77.00853    88.922483    81.249922    1605.9784  0.032963942  0.031425055  0.040591428   0.10498042  0.025987103  0.025743758  0.032669579  0.084400439 
  142000   -1793882.1    12048.317   -772.41743     77.00853    88.922483    81.249922    1599.5098  0.032385035  0.031631141  0.038940944   0.10295712  0.025238311  0.025624881  0.030821732  0.081684923 
  143000   -1793810.7    12023.694   -481.12097     77.00853    88.922483    81.249922     1596.241  0.032255836  0.031697438  0.040166997   0.10412027  0.025652883  0.025635995  0.032504064  0.083792942 
  144000     -1793830    12099.972   -799.21809     77.00853    88.922483    81.249922    1606.3674  0.032214245   0.03185811  0.039519526   0.10359188  0.025798874  0.025723232  0.031692931  0.083215037 
  145000   -1793804.9    12015.384   -193.28476     77.00853    88.922483    81.249922    1595.1377  0.031877024  0.031020806  0.040011109   0.10290894  0.025598649   0.02595457  0.032683861   0.08423708 
  146000     -1793939    12006.888    -1215.479     77.00853    88.922483    81.249922    1594.0099  0.033001318  0.030981837  0.039557083   0.10354024   0.02632623  0.025589279   0.03252902  0.084444529 
  147000   -1793804.9    12060.548    -240.3278     77.00853    88.922483    81.249922    1601.1335  0.032267445  0.032217433   0.03912397   0.10360885   0.02533782  0.026683847  0.031373752  0.083395418 
  148000   -1793838.8    12060.723   -803.16715     77.00853    88.922483    81.249922    1601.1568  0.032408353  0.031915585  0.040717643   0.10504158  0.025513513  0.026394176  0.033196007  0.085103696 
  149000     -1793900    12030.952   -808.01762     77.00853    88.922483    81.249922    1597.2046  0.032943561  0.031960071  0.038871495   0.10377513  0.026018041   0.02575825  0.031297771  0.083074062 
  150000   -1793896.1    12057.282   -638.45863     77.00853    88.922483    81.249922    1600.7001  0.033707357   0.03128825  0.039609514   0.10460512  0.026401155  0.025668368  0.031843511  0.083913035 
  151000   -1793828.3    12111.459   -157.70073     77.00853    88.922483    81.249922    1607.8924   0.03322905  0.031117942  0.039743815   0.10409081  0.026059098  0.025970995  0.031917583  0.083947676 
  152000   -1793883.3     12093.01   -439.35164     77.00853    88.922483    81.249922    1605.4432   0.03357641  0.031545375  0.039728644   0.10485043  0.026267529  0.025516832  0.031819613  0.083603975 
  153000   -1793889.6    11984.725   -1323.2768     77.00853    88.922483    81.249922    1591.0675  0.033559778  0.030765313  0.039975009    0.1043001  0.026191871  0.025317517  0.032950707  0.084460095 
  154000   -1793888.3    12096.858   -646.52309     77.00853    88.922483    81.249922     1605.954  0.033420365  0.030997518  0.038918239   0.10333612  0.025421347  0.025767776  0.030879532  0.082068655 
  155000   -1793811.4    12027.738   -315.11169     77.00853    88.922483    81.249922    1596.7778   0.03311647  0.032234015  0.040651216    0.1060017  0.026062795  0.025973922   0.03255097  0.084587687 
  156000   -1793926.6    12080.097   -868.71125     77.00853    88.922483    81.249922    1603.7289  0.032325239  0.031120685  0.039724962   0.10317089   0.02534881   0.02548303   0.03134488   0.08217672 
  157000   -1793795.2    12013.615   -337.03751     77.00853    88.922483    81.249922    1594.9028  0.032530932  0.031594748  0.039977144   0.10410282  0.025212715  0.026218694  0.032169827  0.083601236 
  158000   -1793787.3    12065.662   -463.87829     77.00853    88.922483    81.249922    1601.8125   0.03300059  0.031171864  0.040169609   0.10434206  0.025641558  0.025884743  0.033049071  0.084575372 
  159000   -1793905.9    12011.378   -968.16078     77.00853    88.922483    81.249922    1594.6059  0.032702208  0.031307964  0.039044464   0.10305464  0.025732479  0.025824191  0.031811356  0.083368027 
  160000   -1793863.4    12019.448   -243.77082     77.00853    88.922483    81.249922    1595.6772  0.032661347  0.031219544  0.040911531   0.10479242  0.025346148  0.025352796  0.033710403  0.084409347 
  161000   -1793772.8    12072.769    366.19448     77.00853    88.922483    81.249922    1602.7561  0.032155139  0.030962735  0.039039318   0.10215719  0.026002545  0.025184365  0.031338428  0.082525338 
  162000   -1793844.3    12068.532   -1166.2202     77.00853    88.922483    81.249922    1602.1936  0.032944608  0.032522775  0.039609837   0.10507722   0.02553078  0.026495564  0.032118996   0.08414534 
  163000   -1793856.1    12027.724    -1158.884     77.00853    88.922483    81.249922     1596.776  0.032169912  0.031817011  0.039619644   0.10360657    0.0252231  0.025981559  0.032157376  0.083362035 
  164000   -1793860.1    11999.651   -1116.4971     77.00853    88.922483    81.249922     1593.049  0.032846966  0.032301882  0.039527267   0.10467612  0.025810647  0.026324277  0.032437735   0.08457266 
  165000   -1793863.5    12096.676   -304.68903     77.00853    88.922483    81.249922    1605.9299  0.032320033  0.032181821  0.040237776   0.10473963  0.025642002  0.026215319  0.032916581  0.084773901 
  166000   -1793870.3    12064.711   -800.74391     77.00853    88.922483    81.249922    1601.6863  0.032477267  0.032291678  0.039805485   0.10457443  0.025705521   0.02623421  0.032044642  0.083984373 
  167000   -1793902.7    12032.671   -955.16556     77.00853    88.922483    81.249922    1597.4327  0.032093411  0.031589788  0.041907488   0.10559069  0.025742961  0.025512763  0.034234243  0.085489967 
  168000   -1793891.4     12049.34   -591.03075     77.00853    88.922483    81.249922    1599.6457  0.031479828   0.03206904  0.039017568   0.10256644  0.025764412   0.02579061   0.03222885  0.083783872 
  169000   -1793843.7    12049.987    -729.4384     77.00853    88.922483    81.249922    1599.7315  0.031612399  0.032636449  0.038733151     0.102982  0.025665888  0.026433144  0.031292031  0.083391063 
  170000   -1793886.6    12028.494   -986.84555     77.00853    88.922483    81.249922    1596.8782  0.032108866  0.032014047   0.04077076   0.10489367  0.025404925  0.025892161  0.033244555   0.08454164 
  171000   -1793866.3     12052.11   -536.37461     77.00853    88.922483    81.249922    1600.0134  0.032906268  0.031219765  0.039552099   0.10367813  0.026571305  0.025942487  0.031882886  0.084396678 
  172000   -1793808.1    12059.799   -36.930147     77.00853    88.922483    81.249922    1601.0342  0.033125859  0.032912686  0.040763624   0.10680217  0.026255047  0.026607213  0.033321214  0.086183473 
  173000   -1793828.6    12048.778    22.581094     77.00853    88.922483    81.249922     1599.571  0.033155395  0.032362514  0.039706172   0.10522408  0.026658151  0.025965025  0.032139133  0.084762309 
  174000   -1793863.3    11989.665   -693.66776     77.00853    88.922483    81.249922    1591.7233  0.032420973  0.031561316  0.038799557   0.10278185  0.025575653  0.025725683  0.031188171  0.082489507 
  175000   -1793867.1    12070.878   -963.39568     77.00853    88.922483    81.249922     1602.505  0.032090194  0.031439807  0.039651919   0.10318192  0.025385674  0.026256682  0.031785346  0.083427702 
  176000   -1793841.4    12054.788   -853.00647     77.00853    88.922483    81.249922     1600.369  0.032403987  0.030990836    0.0389243   0.10231912  0.025930485  0.025975507  0.031341003  0.083246996 
  177000   -1793884.8    12027.633    -535.8509     77.00853    88.922483    81.249922    1596.7639  0.032888547  0.031545818   0.04019922   0.10463358  0.026667173  0.025724937  0.033032722  0.085424831 
  178000   -1793796.3    12069.133   -690.23087     77.00853    88.922483    81.249922    1602.2733   0.03235994  0.031939262  0.039114871   0.10341407   0.02610639   0.02542468  0.031888459  0.083419528 
  179000   -1793852.6    12054.016   -611.23012     77.00853    88.922483    81.249922    1600.2664  0.032845298  0.032971728  0.040071175    0.1058882  0.026250448  0.026171427  0.032152585   0.08457446 
  180000   -1793858.5    12112.929   -1032.9767     77.00853    88.922483    81.249922    1608.0877  0.032127408  0.032474012  0.039575096   0.10417652  0.025796882  0.026778572  0.031621592  0.084197046 
  181000   -1793818.5    12062.384   -454.24905     77.00853    88.922483    81.249922    1601.3774  0.032909656  0.032694349  0.038734195    0.1043382  0.025956661  0.026030997  0.030959094  0.082946752 
  182000   -1793832.9    12034.417   -835.08107     77.00853    88.922483    81.249922    1597.6645  0.032669403    0.0336814  0.041304756   0.10765556  0.025655526  0.026811292   0.03301211  0.085478928 
  183000   -1793847.2    12046.518   -216.87764     77.00853    88.922483    81.249922     1599.271  0.032507988  0.032259204  0.038422103   0.10318929  0.025758644  0.025772284  0.031532547  0.083063476 
  184000   -1793914.8    12040.025   -1269.5515     77.00853    88.922483    81.249922     1598.409   0.03291479  0.032791015  0.040177937   0.10588374  0.026611767  0.026360468   0.03259725  0.085569485 
  185000     -1793832    12068.373   -1086.1273     77.00853    88.922483    81.249922    1602.1724  0.032654904   0.03354063  0.040175887   0.10637142   0.02571055  0.026353455  0.032949003  0.085013008 
  186000   -1793891.7    12013.309   -703.23938     77.00853    88.922483    81.249922    1594.8622   0.03319546  0.033235738   0.03924231   0.10567351  0.026479129  0.026082146  0.031587221  0.084148496 
  187000   -1793896.3    12057.332    -639.7699     77.00853    88.922483    81.249922    1600.7067  0.033140353  0.032755358  0.039580327   0.10547604  0.026263349  0.026032786  0.032154177  0.084450312 
  188000   -1793923.1    12048.739   -1220.9576     77.00853    88.922483    81.249922    1599.5658  0.032410821  0.033439043  0.038371371   0.10422123  0.025869905  0.026527125  0.030892324  0.083289355 
  189000   -1793826.1    12052.195   -772.28505     77.00853    88.922483    81.249922    1600.0246  0.032903257  0.033259715  0.040225962   0.10638893  0.026132353   0.02668314  0.032946353  0.085761847 
  190000   -1793805.8    12044.334   -358.86913     77.00853    88.922483    81.249922    1598.9811  0.032464084  0.033773525  0.039114329   0.10535194   0.02600184  0.027251024  0.031577486   0.08483035 
  191000   -1793790.8     12075.52   -378.85237     77.00853    88.922483    81.249922    1603.1213  0.031620323  0.033113678   0.04030873   0.10504273  0.025716318  0.026072923  0.033006378  0.084795619 
  192000   -1793871.3    11991.977   -557.77592     77.00853    88.922483    81.249922    1592.0303  0.032228542  0.033333907  0.040434205   0.10599665  0.025617767  0.026694997  0.032790374  0.085103138 
  193000   -1793810.9    12042.847    -609.2932     77.00853    88.922483    81.249922    1598.7837  0.033137655  0.033238255  0.039814189    0.1061901  0.026150275    0.0269938  0.032152844  0.085296919 
  194000   -1793841.3    12023.965   -412.23943     77.00853    88.922483    81.249922    1596.2769  0.033146711  0.032603223   0.04017404   0.10592397  0.026649253  0.026304178  0.032601503  0.085554933 
  195000   -1793890.2    12076.031   -953.21909     77.00853    88.922483    81.249922    1603.1891  0.033162472  0.033763921  0.040123205    0.1070496  0.026393561  0.027252704   0.03213291  0.085779175 
  196000   -1793835.8    12082.723    -574.9336     77.00853    88.922483    81.249922    1604.0775  0.033386133   0.03303946  0.040128714   0.10655431  0.026070263  0.026248758  0.032354137  0.084673158 
  197000   -1793782.9    12091.932   -432.21471     77.00853    88.922483    81.249922       1605.3  0.032899832  0.032529871  0.040263349   0.10569305  0.025876058  0.026283088  0.031844741  0.084003887 
  198000   -1793931.5    12041.205   -1008.6632     77.00853    88.922483    81.249922    1598.5656   0.03355797   0.03265651  0.039472539   0.10568702  0.027586589  0.026565723  0.031644507  0.085796819 
  199000   -1793847.2    11983.634   -1058.4395     77.00853    88.922483    81.249922    1590.9227  0.032798462  0.032956988  0.039948674   0.10570412  0.026287627  0.026471909  0.032036576  0.084796112 
  200000   -1793929.1    12022.198   -1179.9945     77.00853    88.922483    81.249922    1596.0423   0.03226751  0.033112682  0.038932294   0.10431249  0.026101988  0.026808966  0.031778467  0.084689421 
  201000   -1793896.7    12016.916   -982.02527     77.00853    88.922483    81.249922    1595.3412  0.031850482  0.032608984  0.040796291   0.10525576  0.025624953   0.02617935  0.032358075  0.084162378 
  202000   -1793835.2    12050.192   -790.50136     77.00853    88.922483    81.249922    1599.7588  0.032039761  0.033374167  0.039966914   0.10538084  0.026065532  0.027248841  0.031537987   0.08485236 
  203000   -1793910.1    12093.338   -982.77437     77.00853    88.922483    81.249922    1605.4867  0.033721964  0.033159459  0.040771504   0.10765293  0.027254127   0.02663889  0.031792028  0.085685046 
  204000   -1793897.1    12046.067   -790.31963     77.00853    88.922483    81.249922    1599.2111  0.033019796  0.032867951  0.041067622   0.10695537  0.026597287  0.026870686  0.032372357   0.08584033 
  205000   -1793816.8    12137.072    42.764389     77.00853    88.922483    81.249922    1611.2928  0.032752314  0.032484475  0.039687697   0.10492449  0.026180665  0.026249311  0.031815652  0.084245628 
  206000   -1793777.3    12072.618   -279.06218     77.00853    88.922483    81.249922     1602.736  0.032955327  0.032903265  0.039421401   0.10527999  0.026540856  0.026477667  0.031792038   0.08481056 
  207000   -1793832.2    12051.697   -545.84019     77.00853    88.922483    81.249922    1599.9586   0.03252771  0.033203558  0.039593912   0.10532518  0.025958941  0.027134221  0.031521924  0.084615086 
  208000   -1793796.8    12097.542   -523.64858     77.00853    88.922483    81.249922    1606.0449  0.033741925  0.033067038  0.040106209   0.10691517  0.027326763  0.026296087  0.032100158  0.085723008 
  209000   -1793848.9    12141.423   -387.52171     77.00853    88.922483    81.249922    1611.8704    0.0320884  0.033076979  0.039180693   0.10434607  0.026968238  0.027108285  0.031504602  0.085581125 
  210000   -1793813.9    12083.367   -537.29744     77.00853    88.922483    81.249922     1604.163  0.031853012  0.033141362  0.040825475   0.10581985  0.025814746  0.026997756  0.033182164  0.085994667 
  211000     -1793881    12055.439   -933.77399     77.00853    88.922483    81.249922    1600.4554  0.031806567  0.032791814  0.040381606   0.10497999  0.026199288  0.026316082  0.032804563  0.085319934 
  212000   -1793849.8    11998.394   -847.04523     77.00853    88.922483    81.249922    1592.8822  0.032079581  0.032580754  0.039058361    0.1037187  0.026538713  0.026554871  0.031626337  0.084719921 
  213000   -1793899.7    12063.745   -1190.3763     77.00853    88.922483    81.249922     1601.558  0.032447291  0.032702478  0.040261333    0.1054111  0.026344067  0.026288304  0.032962076  0.085594447 
  214000   -1793905.4    12006.694   -1233.0365     77.00853    88.922483    81.249922     1593.984  0.031527374   0.03342904  0.039961684    0.1049181  0.026053334    0.0268758  0.032398421  0.085327555 
  215000   -1793754.6    11983.991   -47.217282     77.00853    88.922483    81.249922    1590.9701  0.033297912  0.033189293  0.040171118   0.10665832  0.026895579  0.026805098  0.032757501  0.086458178 
  216000   -1793821.9    12084.368   -503.37599     77.00853    88.922483    81.249922    1604.2959  0.031389461  0.033583476  0.038797738   0.10377067  0.025310152  0.026877247  0.031435857  0.083623257 
  217000   -1793841.9    12104.961   -624.48671     77.00853    88.922483    81.249922    1607.0298  0.031884439  0.034576312  0.039563231   0.10602398  0.026266606  0.027807687  0.032406834  0.086481126 
  218000   -1793801.6    11965.854    -401.0766     77.00853    88.922483    81.249922    1588.5622  0.032452508  0.033597133  0.040032444   0.10608209  0.026674297  0.026696067  0.032350352  0.085720716 
  219000   -1793996.8     12095.21   -814.59818     77.00853    88.922483    81.249922    1605.7353  0.031322162  0.032883244  0.039129738   0.10333514  0.025619329  0.026097271  0.031303365  0.083019965 
  220000   -1793909.4    12086.866   -1389.1649     77.00853    88.922483    81.249922    1604.6275  0.032145965  0.034476235  0.040968402    0.1075906   0.02640031  0.027737724  0.033531248  0.087669282 
  221000   -1793896.1     11971.53   -828.26686     77.00853    88.922483    81.249922    1589.3158  0.032125081  0.033265033  0.039599771   0.10498988   0.02587417  0.026833528  0.031655102    0.0843628 
  222000   -1793746.8    11997.223   -466.95595     77.00853    88.922483    81.249922    1592.7266  0.032243329  0.033402967  0.041181711   0.10682801  0.026273052  0.026853326  0.032932701  0.086059078 
  223000   -1793839.2    11995.741   -592.05791     77.00853    88.922483    81.249922      1592.53  0.032337635  0.033467566  0.041218292   0.10702349  0.026415175  0.026515316  0.033710064  0.086640555 
  224000     -1793887    12046.167   -562.84999     77.00853    88.922483    81.249922    1599.2244   0.03199293  0.033829933  0.039750259   0.10557312  0.025904815  0.027507258  0.032050288  0.085462361 
  225000   -1793819.6    12022.153    -679.5879     77.00853    88.922483    81.249922    1596.0363  0.031751358  0.033282584  0.040861136   0.10589508  0.025876647  0.026525677  0.032569804  0.084972127 
  226000     -1793824    12094.651   -408.32277     77.00853    88.922483    81.249922     1605.661  0.032311197   0.03467929  0.039543493   0.10653398  0.026771959  0.028286123  0.031753951  0.086812033 
  227000   -1793849.8    12044.563   -568.09773     77.00853    88.922483    81.249922    1599.0114  0.032796485  0.033596743  0.040429256   0.10682248  0.026310424  0.027568412  0.032250885  0.086129722 
  228000   -1793848.3    12015.585   -899.86211     77.00853    88.922483    81.249922    1595.1644   0.03233411  0.033311801  0.039333704   0.10497961  0.026450644  0.026902876  0.031608426  0.084961946 
  229000   -1793845.7    12001.477   -764.97664     77.00853    88.922483    81.249922    1593.2914  0.032519537  0.033596655  0.040001188   0.10611738  0.026128497  0.026953535  0.032363002  0.085445034 
  230000   -1793880.6    12020.471   -637.74648     77.00853    88.922483    81.249922    1595.8131  0.032423523  0.033032959  0.041811471   0.10726795  0.026630529  0.026692787  0.033497678  0.086820994 
  231000     -1793835    12053.443   -772.28754     77.00853    88.922483    81.249922    1600.1904  0.032433501  0.034155657  0.040587295   0.10717645  0.026843499  0.027914517  0.032658698  0.087416714 
  232000   -1793872.5    12068.227   -1015.2767     77.00853    88.922483    81.249922     1602.153  0.032271689  0.034394963  0.039271923   0.10593858  0.026106384  0.028016894  0.032144686  0.086267964 
  233000   -1793931.8    12083.707   -489.45357     77.00853    88.922483    81.249922    1604.2081  0.032976797  0.033560875  0.040021207   0.10655888   0.02671326  0.026946883  0.032897141  0.086557284 
  234000   -1793864.1    12071.473   -697.80261     77.00853    88.922483    81.249922    1602.5839  0.033043172  0.033881237  0.039332536   0.10625695  0.026977612  0.027435541  0.031636154  0.086049307 
  235000   -1793876.2    12092.637   -1038.3883     77.00853    88.922483    81.249922    1605.3937  0.032162675  0.033157455  0.040370963   0.10569109  0.026624802  0.027148546  0.032473431   0.08624678 
  236000   -1793860.6     12106.83   -699.63443     77.00853    88.922483    81.249922    1607.2779  0.031918766  0.034046951  0.040105108   0.10607082   0.02651882  0.027871282  0.032594749  0.086984851 
  237000   -1793874.5    12070.022   -877.15393     77.00853    88.922483    81.249922    1602.3913   0.03164279  0.033282365  0.039527221   0.10445238  0.025950805  0.027344817    0.0317968  0.085092422 
  238000   -1793871.9    12110.155   -915.31995     77.00853    88.922483    81.249922    1607.7193  0.031999436  0.034096385  0.041102375    0.1071982  0.026161524  0.027937531  0.032698905  0.086797961 
  239000   -1793835.2    12078.327   -178.26028     77.00853    88.922483    81.249922    1603.4939  0.032996554  0.033934399  0.039397134   0.10632809   0.02667634  0.027876431  0.031837343  0.086390114 
  240000   -1793882.1    12086.953   -296.01221     77.00853    88.922483    81.249922    1604.6391   0.03281924  0.032792876  0.040653488    0.1062656    0.0265415  0.026596073  0.033086035  0.086223608 
  241000   -1793828.6    12006.812   -78.669408     77.00853    88.922483    81.249922    1593.9998  0.031816818  0.033821156   0.04076376   0.10640173  0.025824254  0.028041775  0.032135386  0.086001415 
  242000   -1793894.2    12066.815   -1124.2104     77.00853    88.922483    81.249922    1601.9656  0.032157141  0.033141517  0.039967752   0.10526641  0.026016875   0.02713077  0.032385991  0.085533636 
  243000   -1793808.9    12101.693   -641.82521     77.00853    88.922483    81.249922    1606.5959  0.032910641   0.03277023  0.040536345   0.10621722  0.027324608  0.027497281  0.032378319  0.087200208 
  244000   -1793853.6    12043.819   -769.13505     77.00853    88.922483    81.249922    1598.9127  0.032070216  0.034079066   0.03983075   0.10598003  0.026377437  0.028038669   0.03262419  0.087040297 
  245000   -1793820.5    12016.453     -531.849     77.00853    88.922483    81.249922    1595.2796  0.032826872  0.032993878  0.041586009   0.10740676  0.026952792  0.027260482  0.033334047  0.087547321 
  246000   -1793809.4    12100.936    128.28943     77.00853    88.922483    81.249922    1606.4955  0.032059212  0.033763116  0.039781437   0.10560376  0.026260019  0.027717353  0.031240852  0.085218224 
  247000   -1793877.8    12067.878   -140.66165     77.00853    88.922483    81.249922    1602.1068  0.032159393   0.03340828  0.040450789   0.10601846  0.026171459  0.027340172  0.032926062  0.086437693 
  248000     -1793904    12099.524   -790.64952     77.00853    88.922483    81.249922    1606.3079  0.033232016  0.033010256  0.039918925    0.1061612   0.02668287  0.027474377  0.032355156  0.086512403 
  249000   -1793816.5    12089.341    85.824679     77.00853    88.922483    81.249922    1604.9561  0.032831646  0.033228317  0.039435725   0.10549569  0.026529629  0.027168474  0.031430476  0.085128579 
  250000   -1793851.4    12067.112   -784.73115     77.00853    88.922483    81.249922    1602.0051  0.031759963  0.033075057   0.04072687   0.10556189  0.026342554  0.028021355  0.032844209  0.087208118 
  251000   -1793861.9    12104.584   -837.06741     77.00853    88.922483    81.249922    1606.9797  0.032156527  0.034099074  0.040100336   0.10635594  0.026862739  0.028460642  0.031389848  0.086713229 
  252000   -1793905.6    12065.364   -912.76733     77.00853    88.922483    81.249922    1601.7729  0.032778807   0.03329085  0.041615325   0.10768498  0.026669584   0.02727251  0.033342324  0.087284418 
  253000   -1793795.1    12030.618   -37.735498     77.00853    88.922483    81.249922    1597.1602  0.032139399  0.033077919  0.040638363   0.10585568  0.025614158  0.027515319   0.03263094  0.085760417 
  254000   -1793838.1    12039.997   -560.49408     77.00853    88.922483    81.249922    1598.4053  0.032665456  0.033098481  0.040026342   0.10579028  0.026259625  0.027036782   0.03191899  0.085215397 
  255000   -1793911.5    12011.063   -807.24946     77.00853    88.922483    81.249922    1594.5641  0.033084966  0.032770639  0.040162819   0.10601842  0.027216505  0.027408204  0.032157418  0.086782127 
  256000   -1793906.2    12090.183   -661.07675     77.00853    88.922483    81.249922    1605.0679   0.03174565  0.033783385  0.040003213   0.10553225  0.025719868  0.027306284  0.032296843  0.085322996 
  257000   -1793945.9    12025.891    -1180.648     77.00853    88.922483    81.249922    1596.5327  0.031883726  0.033467404  0.040087129   0.10543826  0.026195828   0.02807234  0.032188035  0.086456203 
  258000   -1793858.9    11949.649   -559.61927     77.00853    88.922483    81.249922    1586.4109  0.032594009  0.033086997  0.041499846   0.10718085  0.026811801  0.027425652  0.033043016  0.087280469 
  259000   -1793859.1    12054.099    -942.7651     77.00853    88.922483    81.249922    1600.2774  0.032778264  0.032973321  0.040098892   0.10585048  0.026579132  0.027358423  0.031764575   0.08570213 
  260000   -1793799.6    12099.317   -65.374639     77.00853    88.922483    81.249922    1606.2805  0.032348577  0.032843803  0.042963018    0.1081554  0.026657496  0.027426629  0.033715792  0.087799917 
  261000   -1793875.5    12078.067   -534.23946     77.00853    88.922483    81.249922    1603.4594   0.03311592  0.033478359   0.03963785   0.10623213  0.027038546  0.028282628  0.031459511  0.086780684 
  262000   -1793898.3     12063.28   -1121.3839     77.00853    88.922483    81.249922    1601.4963  0.032990992  0.033428667  0.041078911   0.10749857   0.02670524  0.028475017  0.032789966  0.087970224 
  263000   -1793863.2    12082.677   -359.54792     77.00853    88.922483    81.249922    1604.0714   0.03320248  0.033483286  0.042308744   0.10899451  0.026558138  0.027356514  0.034193423  0.088108075 
  264000     -1793933    12036.308   -1645.0648     77.00853    88.922483    81.249922    1597.9155  0.032518378  0.033261554  0.039831024   0.10561096  0.026155348  0.027321775  0.031606369  0.085083492 
  265000   -1793852.9    12029.333   -825.21608     77.00853    88.922483    81.249922    1596.9896  0.033354366  0.033423665  0.040805831   0.10758386  0.027067073  0.027838034   0.03299587  0.087900977 
  266000   -1793823.4    12062.632   -628.12944     77.00853    88.922483    81.249922    1601.4103  0.033167895  0.033405215  0.039977264   0.10655037  0.026063532  0.027791019  0.031789432  0.085643984 
  267000   -1793788.3    12153.602   -49.414263     77.00853    88.922483    81.249922    1613.4872  0.033357901  0.033327451  0.041094006   0.10777936  0.026370858  0.027910426  0.032345516    0.0866268 
  268000   -1793846.2     12055.17    62.024285     77.00853    88.922483    81.249922    1600.4196  0.033527569  0.033823579  0.040748156    0.1080993  0.027157417  0.028015057  0.032894795  0.088067269 
  269000   -1793871.3     12017.81    -628.8881     77.00853    88.922483    81.249922    1595.4597  0.033137949  0.033241632  0.040396789   0.10677637  0.026844249  0.028002553  0.031859765  0.086706567 
  270000   -1793850.3    11967.836   -782.11036     77.00853    88.922483    81.249922    1588.8253  0.034058168  0.033049004  0.041508725    0.1086159  0.027274357  0.027396476  0.033738052  0.088408885 
  271000     -1793853    12034.561   -934.48482     77.00853    88.922483    81.249922    1597.6836  0.033145364  0.033676184  0.039365219   0.10618677  0.026379922  0.027784818  0.031229165  0.085393905 
  272000   -1793849.1    12029.028    -443.5073     77.00853    88.922483    81.249922    1596.9491  0.033188834  0.033135744  0.041339663   0.10766424  0.026947379  0.027691199  0.032919504  0.087558082 
  273000   -1793802.8    12037.774   -210.78294     77.00853    88.922483    81.249922    1598.1102  0.033314645   0.03404829  0.040936681   0.10829962  0.026538509  0.028237714   0.03252827  0.087304493 
  274000     -1793772    12075.861   -164.69126     77.00853    88.922483    81.249922    1603.1666  0.032686829  0.034047291  0.040597275   0.10733139  0.026806337  0.027634233  0.031951829  0.086392399 
  275000     -1793854    12001.372   -231.56237     77.00853    88.922483    81.249922    1593.2775  0.032878707  0.034716888  0.041780962   0.10937656  0.026843943   0.02797254  0.033667619  0.088484102 
  276000   -1793946.8     12055.05    -1055.135     77.00853    88.922483    81.249922    1600.4037  0.031843803  0.033309204   0.03920212   0.10435513  0.026114399  0.027543264  0.031400601  0.085058264 
  277000   -1793891.1    12024.187   -868.30193     77.00853    88.922483    81.249922    1596.3065  0.032566056  0.033672589  0.042106512   0.10834516  0.027063967  0.027045484  0.033271976  0.087381427 
  278000   -1793879.3    12043.391   -506.58199     77.00853    88.922483    81.249922    1598.8559  0.032014876  0.033414622  0.039968986   0.10539848  0.026747168  0.027280441  0.031810471   0.08583808 
  279000   -1793817.9     12055.78   -541.83631     77.00853    88.922483    81.249922    1600.5006  0.032049165  0.033787793   0.04077362   0.10661058  0.026854606  0.027705007  0.032759459  0.087319072 
  280000   -1793852.5    12067.755   -466.99855     77.00853    88.922483    81.249922    1602.0904  0.032183184  0.033830401    0.0422772   0.10829078  0.027156497  0.027394678  0.033533276  0.088084451 
  281000   -1793826.7     12012.57   -295.45542     77.00853    88.922483    81.249922    1594.7642  0.032833519  0.033175798  0.040405198   0.10641451   0.02665247  0.027090787  0.031975899  0.085719156 
  282000   -1793840.2    12080.899   -427.47471     77.00853    88.922483    81.249922    1603.8354  0.032345117  0.033443825  0.041705155    0.1074941  0.027337336  0.027534961  0.033803919  0.088676216 
  283000   -1793864.8    12061.255   -945.78292     77.00853    88.922483    81.249922    1601.2274  0.032463379  0.033509487  0.040950865   0.10692373  0.026950988  0.027024115  0.031899695  0.085874798 
  284000     -1793838    12043.861   -505.21118     77.00853    88.922483    81.249922    1598.9183  0.032880356  0.034317103  0.040879955   0.10807742   0.02682346   0.02771546   0.03225655  0.086795469 
  285000   -1793875.6      12105.7   -801.59682     77.00853    88.922483    81.249922    1607.1279  0.032656837  0.034426496  0.042146252   0.10922958  0.026472989  0.027741757   0.03335147  0.087566215 
  286000   -1793827.8    12091.528   -664.63962     77.00853    88.922483    81.249922    1605.2464  0.032832805  0.033871906  0.040863774   0.10756848  0.026795123  0.027489803  0.032788221  0.087073147 
  287000   -1793899.3    12068.403    -204.5354     77.00853    88.922483    81.249922    1602.1764  0.033652726  0.032536484  0.041229535   0.10741875  0.028248648  0.027276572  0.033616265  0.089141485 
  288000   -1793842.2    12029.463   -667.04815     77.00853    88.922483    81.249922    1597.0068  0.032792112   0.03343224  0.040661645     0.106886  0.027089364  0.027935181  0.032297957  0.087322502 
  289000   -1793867.7    12052.726   -550.28596     77.00853    88.922483    81.249922    1600.0952  0.032379835   0.03308838  0.041533586    0.1070018  0.026822194  0.027650496  0.032981219  0.087453908 
  290000   -1793856.1    12060.794   -623.92572     77.00853    88.922483    81.249922    1601.1662  0.032961244  0.033586427  0.039351458   0.10589913  0.026316334  0.027620245  0.031583794  0.085520373 
  291000   -1793898.3    12070.631   -1182.2876     77.00853    88.922483    81.249922    1602.4722   0.03256822  0.032880803  0.040476363   0.10592539  0.026728488  0.026515205  0.032194884  0.085438577 
  292000   -1793898.3    12154.929   -708.53764     77.00853    88.922483    81.249922    1613.6634  0.033909539  0.033861758  0.042397834   0.11016913  0.027692395  0.027632067  0.034127839    0.0894523 
  293000   -1793785.5    12087.158    -540.2147     77.00853    88.922483    81.249922    1604.6663  0.032994545  0.033455777  0.040129598   0.10657992  0.027191793  0.027388291  0.031945698  0.086525782 
  294000   -1793849.8    12089.791   -381.26161     77.00853    88.922483    81.249922    1605.0158  0.032177404  0.033477439  0.042214386   0.10786923   0.02649042  0.027063517  0.033900833   0.08745477 
  295000     -1793866    12054.541   -713.70187     77.00853    88.922483    81.249922    1600.3361  0.032035493  0.034516537  0.041054696   0.10760673  0.026398343  0.027788652  0.032678575   0.08686557 
  296000   -1793917.8    12132.776   -974.67151     77.00853    88.922483    81.249922    1610.7225  0.033167074  0.034923503  0.040854319    0.1089449  0.027451588  0.028244057  0.032747713  0.088443358 
  297000   -1793937.9    12044.154   -1182.8821     77.00853    88.922483    81.249922    1598.9571   0.03311926   0.03305839  0.042612113   0.10878976  0.027681253   0.02685257  0.033958286  0.088492109 
  298000   -1793863.8    12062.595   -545.70952     77.00853    88.922483    81.249922    1601.4054  0.033216927  0.033811699  0.040990533   0.10801916  0.027825341  0.027702564  0.033175997  0.088703903 
  299000   -1793911.8    12043.205   -957.36178     77.00853    88.922483    81.249922    1598.8311   0.03291227  0.034158317  0.041873267   0.10894385  0.027158221  0.028196891  0.033690572  0.089045683 
  300000   -1793811.3    12066.843   -715.40387     77.00853    88.922483    81.249922    1601.9693  0.032710975  0.033965235  0.040298238   0.10697445   0.02636349  0.027471334  0.032231463  0.086066287 
  301000   -1793873.5    12125.498    -733.5319     77.00853    88.922483    81.249922    1609.7563  0.034022322  0.033959853  0.041057165   0.10903934  0.027619104  0.027565466  0.032672843  0.087857413 
  302000   -1793943.7     12091.09   -562.01101     77.00853    88.922483    81.249922    1605.1883  0.033283685  0.034289988  0.040968501   0.10854217  0.026940305  0.027619505  0.032769478  0.087329288 
  303000   -1793891.2    12058.892   -555.58218     77.00853    88.922483    81.249922    1600.9137  0.033037427  0.034635828  0.041149596   0.10882285  0.027233852  0.027801493  0.032836113  0.087871459 
  304000   -1793858.1    12049.686   -933.82904     77.00853    88.922483    81.249922    1599.6916  0.033220214   0.03393083   0.04377417   0.11092521  0.026818116  0.027762911  0.034809575  0.089390602 
  305000   -1793929.9    12058.459   -956.06004     77.00853    88.922483    81.249922    1600.8563  0.032885906  0.033886229  0.040477051   0.10724919  0.026946722  0.027291892  0.032447762  0.086686376 
  306000   -1793842.5    12090.596   -994.78939     77.00853    88.922483    81.249922    1605.1227  0.033279255  0.033878939  0.041945864   0.10910406   0.02738403  0.027002678  0.032940597  0.087327306 
  307000   -1793823.9    12052.645   -371.73681     77.00853    88.922483    81.249922    1600.0845  0.033032571  0.033951979   0.04027753   0.10726208  0.027050637  0.028197244  0.031992037  0.087239918 
  308000     -1793864    12008.428   -831.31232     77.00853    88.922483    81.249922    1594.2143  0.032974071  0.033667501  0.040890309   0.10753188   0.02666336  0.027702364  0.031977981  0.086343705 
  309000   -1793869.8    12104.601   -958.97834     77.00853    88.922483    81.249922     1606.982  0.033055997  0.033545358  0.044051944    0.1106533  0.027130948  0.027652739    0.0347696  0.089553288 
  310000   -1793876.3    11992.031   -752.99168     77.00853    88.922483    81.249922    1592.0374  0.033241011  0.034771862  0.040418337   0.10843121  0.027567032  0.027941405  0.032446162  0.087954599 
  311000   -1793824.6    12049.321   -513.89198     77.00853    88.922483    81.249922    1599.6431  0.034883496  0.034115001  0.043076902    0.1120754  0.028878448   0.02760424  0.034219321  0.090702009 
  312000   -1793791.8    12019.266   -351.91479     77.00853    88.922483    81.249922     1595.653  0.032872728  0.034250298  0.039885864   0.10700889  0.026829502   0.02750227   0.03193596  0.086267732 
  313000   -1793889.6    12060.087    -1293.129     77.00853    88.922483    81.249922    1601.0724  0.033714652  0.034775298  0.040922257   0.10941221  0.027385576  0.028058771  0.032805551  0.088249899 
  314000     -1793883    12142.528   -53.021986     77.00853    88.922483    81.249922    1612.0171  0.032894116  0.034961936  0.042366081   0.11022213  0.026974495  0.028073137  0.034165144  0.089212775 
  315000   -1793867.5    12039.014   -797.30603     77.00853    88.922483    81.249922    1598.2748  0.033748581  0.033668061  0.041165052   0.10858169  0.027750508  0.027563881  0.032394832  0.087709221 
  316000   -1793937.4    12048.043   -936.90214     77.00853    88.922483    81.249922    1599.4734  0.033859714  0.034393107  0.043877334   0.11213015  0.028309149  0.028028031  0.035065517  0.091402697 
  317000   -1793932.4    12015.786   -681.95243     77.00853    88.922483    81.249922    1595.1912  0.032722988   0.03438666  0.039768971   0.10687862  0.026600374  0.028117886   0.03106502  0.085783279 
  318000   -1793926.6    11950.688   -1072.6881     77.00853    88.922483    81.249922    1586.5488   0.03264899  0.034231861  0.041253534   0.10813439  0.026986041  0.027868506  0.033042753  0.087897301 
  319000   -1793716.7    12026.772   -331.20408     77.00853    88.922483    81.249922    1596.6495  0.033765613  0.035257219  0.042247242   0.11127007  0.027220138  0.028783755  0.033349502  0.089353395 
  320000   -1793852.6     12004.54   -940.26152     77.00853    88.922483    81.249922    1593.6981  0.034550599    0.0336518  0.040768517   0.10897092  0.028328186  0.027266546  0.032534735  0.088129466 
  321000   -1793862.4     12066.84   -581.62603     77.00853    88.922483    81.249922    1601.9689  0.033598283  0.034493038  0.042347973   0.11043929   0.02779253  0.028162929   0.03414136  0.090096819 
  322000   -1793888.4    12028.398   -982.73747     77.00853    88.922483    81.249922    1596.8655  0.032000069    0.0340205  0.040076524   0.10609709  0.026359705  0.027799727  0.032037944  0.086197377 
  323000   -1793860.1    12094.979   -712.26121     77.00853    88.922483    81.249922    1605.7046  0.033247528  0.034138311  0.041170717   0.10855656  0.027338257  0.027844505  0.033569104  0.088751866 
  324000   -1793826.6    12007.921   -923.92996     77.00853    88.922483    81.249922     1594.147  0.032405294  0.033808975  0.039762385   0.10597665  0.027156394  0.027622193  0.031873367  0.086651954 
  325000   -1793927.7    12076.286   -690.58185     77.00853    88.922483    81.249922    1603.2229  0.033182771  0.033793791  0.040990748   0.10796731  0.028077128  0.027384577  0.032809057  0.088270761 
  326000   -1793772.8    11987.854   -86.545577     77.00853    88.922483    81.249922    1591.4828  0.032443286  0.034162467  0.042820958   0.10942671  0.027197882  0.028102163  0.034132802  0.089432848 
  327000   -1793808.4    12043.318   -467.62224     77.00853    88.922483    81.249922    1598.8462  0.033271418    0.0336788  0.040672418   0.10762264  0.027936681  0.027833299  0.032655109  0.088425089 
  328000   -1793759.8    12027.822   -0.2107326     77.00853    88.922483    81.249922     1596.789  0.034399573  0.034456191  0.042274614   0.11113038  0.028550205  0.028381475  0.033999773  0.090931454 
  329000   -1793916.3    12044.458   -1551.6618     77.00853    88.922483    81.249922    1598.9975  0.033775966    0.0342921  0.040691719   0.10875979  0.028002406    0.0285063   0.03207066  0.088579367 
  330000   -1793907.6    12007.365   -945.31732     77.00853    88.922483    81.249922    1594.0731  0.033025244  0.034611437  0.041480705   0.10911739  0.027802239  0.028099302  0.033217283  0.089118824 
  331000   -1793892.4    12045.181   -704.77407     77.00853    88.922483    81.249922    1599.0936  0.032831153  0.033995218  0.041716889   0.10854326  0.027171351  0.027895233  0.033351318  0.088417902 
  332000   -1793895.2    12076.549   -729.68007     77.00853    88.922483    81.249922    1603.2579  0.031969824  0.033930527  0.041364248    0.1072646  0.027432926  0.027973026  0.034019395  0.089425347 
  333000   -1793860.7    12030.852   -1084.0341     77.00853    88.922483    81.249922    1597.1912  0.033456671    0.0344923  0.042937783   0.11088675  0.028248516  0.028566432  0.034401589  0.091216537 
  334000   -1793821.6    12007.099   -315.77324     77.00853    88.922483    81.249922    1594.0378   0.03302315  0.034297769  0.040806207   0.10812713  0.026998788  0.028154098  0.032619912  0.087772798 
  335000   -1793900.6    12021.759    -861.2613     77.00853    88.922483    81.249922    1595.9841  0.032140699  0.034151334  0.042266298   0.10855833  0.026641138  0.027670563  0.033933945  0.088245645 
  336000     -1793884    12037.771   -883.99723     77.00853    88.922483    81.249922    1598.1098   0.03215196  0.034242766  0.041383496   0.10777822  0.026185027  0.028090704   0.03279922  0.087074951 
  337000   -1793909.8    12050.314   -1023.2649     77.00853    88.922483    81.249922     1599.775  0.033015245  0.034288291  0.041068581   0.10837212  0.027310917  0.027857128  0.032436614  0.087604659 
  338000     -1793822    12043.426   -511.99954     77.00853    88.922483    81.249922    1598.8605  0.033251177  0.033775195  0.042810279   0.10983665  0.028109704  0.027772911  0.034072406  0.089955021 
  339000   -1793827.7    11969.352   -938.15326     77.00853    88.922483    81.249922    1589.0267  0.032668506  0.033793069  0.041385975   0.10784755  0.027264029   0.02797301  0.033440514  0.088677552 
  340000     -1793879    12099.108   -486.95205     77.00853    88.922483    81.249922    1606.2527  0.032997092  0.034500358  0.040800501   0.10829795  0.027562507  0.028928882  0.033291473  0.089782862 
  341000     -1793932    12070.233   -648.95122     77.00853    88.922483    81.249922    1602.4193  0.032295258  0.033606871  0.040845416   0.10674754  0.026323806  0.027468012  0.032707963  0.086499781 
  342000   -1793896.5    12090.996   -984.47718     77.00853    88.922483    81.249922    1605.1758  0.033520691  0.033174494  0.041631906   0.10832709  0.027545404  0.027319707  0.033644599  0.088509709 
  343000   -1793843.6    12023.106   -1003.0757     77.00853    88.922483    81.249922    1596.1629  0.033305243  0.033901881  0.041133845   0.10834097  0.027715609   0.02781668  0.032647165  0.088179453 
  344000   -1793895.7    12071.097   -446.54536     77.00853    88.922483    81.249922    1602.5341  0.032581243  0.034474352   0.04134909   0.10840469  0.026977886  0.028423103  0.032601203  0.088002192 
  345000   -1793888.5    12088.954   -144.99655     77.00853    88.922483    81.249922    1604.9048  0.033084771  0.034524837  0.042848022   0.11045763  0.027280263  0.028059407  0.035463234  0.090802905 
  346000   -1793902.4    12068.871   -523.12854     77.00853    88.922483    81.249922    1602.2386  0.033322134    0.0352283  0.040302499   0.10885293  0.027370006  0.029202852  0.033103934  0.089676792 
  347000   -1793897.5     12016.64   -591.96322     77.00853    88.922483    81.249922    1595.3044  0.034280357  0.035089344  0.042013756   0.11138346  0.028521561  0.029087724  0.033550219  0.091159503 
  348000   -1793779.2    12035.792   -5.8416326     77.00853    88.922483    81.249922    1597.8471  0.032376834  0.033442999  0.041564844   0.10738468  0.026640296  0.026872309  0.033309614  0.086822219 
  349000   -1793842.4    12109.452   -657.28359     77.00853    88.922483    81.249922    1607.6259  0.033787349  0.034044297  0.041174969   0.10900661  0.027756213  0.028159447  0.032600171  0.088515831 
  350000     -1793881    11971.763   -1262.6242     77.00853    88.922483    81.249922    1589.3467  0.032890854  0.033529911   0.04245919   0.10887995  0.027051746  0.027969969  0.033438904  0.088460619 
  351000   -1793881.2    12090.118   -1002.7856     77.00853    88.922483    81.249922    1605.0592  0.033071923   0.03375679  0.040390369   0.10721908  0.027326785  0.027174258  0.031896914  0.086397956 
  352000   -1793863.7    12120.127   -191.82855     77.00853    88.922483    81.249922    1609.0431  0.033682463  0.034472762  0.041858625   0.11001385  0.027749234  0.028034993  0.033630969  0.089415196 
  353000   -1793889.9    12085.373   -1122.3382     77.00853    88.922483    81.249922    1604.4293  0.032561305  0.034617126   0.04091737    0.1080958  0.026689289  0.027557948  0.032659199  0.086906435 
  354000   -1793877.7    11969.584   -792.76737     77.00853    88.922483    81.249922    1589.0574  0.032531488  0.034138479   0.04183711   0.10850708  0.027000525  0.027711244  0.033752025  0.088463794 
  355000   -1793925.3    12042.674   -875.63159     77.00853    88.922483    81.249922    1598.7608  0.032976015   0.03442207  0.041974525   0.10937261  0.027259578  0.027576585  0.033711475  0.088547639 
  356000   -1793773.4    12087.925   -156.84189     77.00853    88.922483    81.249922    1604.7681  0.033730103  0.035651308  0.039977229   0.10935864  0.028015588  0.029344834  0.032829596  0.090190018 
  357000   -1793885.9    12040.491    -673.7599     77.00853    88.922483    81.249922    1598.4708  0.032819775  0.034872018  0.043206568   0.11089836  0.027095775   0.02753615  0.035010421  0.089642346 
  358000   -1793884.3     12034.68   -1032.9331     77.00853    88.922483    81.249922    1597.6994    0.0325501  0.034724971  0.039658404   0.10693347  0.026024853  0.027425999  0.031809588   0.08526044 
  359000   -1793818.7    12095.349   -495.12057     77.00853    88.922483    81.249922    1605.7537  0.033190447  0.035157494  0.041405958    0.1097539  0.027285411  0.028746525  0.032840537  0.088872474 
  360000   -1793847.4    12126.135   -441.52992     77.00853    88.922483    81.249922    1609.8409  0.033148094  0.034120026  0.041964868   0.10923299  0.027338461  0.027902014  0.034129755  0.089370229 
  361000   -1793852.8    11979.117   -670.55773     77.00853    88.922483    81.249922     1590.323   0.03357069  0.034972252  0.041066005   0.10960895  0.027557927  0.028125381    0.0332362  0.088919508 
  362000   -1793811.7    12003.504   -347.03334     77.00853    88.922483    81.249922    1593.5606  0.033851561  0.034870555  0.042720047   0.11144216  0.026911698  0.027842576  0.034427011  0.089181285 
  363000     -1793772    12042.327   -120.20747     77.00853    88.922483    81.249922    1598.7147  0.033427695  0.034771662  0.041189892   0.10938925  0.027207295  0.027960151  0.032964034  0.088131481 
  364000   -1793817.1    12096.453   -802.31979     77.00853    88.922483    81.249922    1605.9003  0.033915447  0.033674334   0.04145224   0.10904202  0.027814187   0.02734312  0.033593977  0.088751284 
  365000   -1793934.8    12024.895   -834.42217     77.00853    88.922483    81.249922    1596.4004  0.034551878  0.033525385  0.039987961   0.10806522  0.027652762  0.027672672  0.032709889  0.088035323 
  366000   -1793801.6    12012.066   -366.11546     77.00853    88.922483    81.249922    1594.6973  0.033668794  0.035033782  0.041420143   0.11012272    0.0277147  0.028815232  0.033138319  0.089668251 
  367000   -1793826.4    12038.864   -1164.6676     77.00853    88.922483    81.249922    1598.2549  0.033483807  0.034652693  0.041832434   0.10996894  0.027159024  0.028164974  0.034083109  0.089407107 
  368000     -1793879    12078.468   -543.11244     77.00853    88.922483    81.249922    1603.5127  0.032795801  0.034591673  0.040050314   0.10743779   0.02707027  0.028160108  0.031992637  0.087223015 
  369000   -1793873.9    12132.803   -407.23807     77.00853    88.922483    81.249922    1610.7261  0.033877614  0.034823318   0.04317264   0.11187357  0.027525986  0.027429656  0.034427009  0.089382651 
  370000   -1793913.4    12002.842   -944.79724     77.00853    88.922483    81.249922    1593.4727  0.033838977  0.034870188   0.04168839   0.11039755  0.027195134  0.028026985  0.032995729  0.088217847 
  371000   -1793855.6    12029.411   -650.74955     77.00853    88.922483    81.249922    1596.9999  0.033980386  0.034918807  0.040087674   0.10898687  0.026844018  0.028240524  0.031661206  0.086745748 
  372000     -1793789    12042.748    -126.5528     77.00853    88.922483    81.249922    1598.7705   0.03432388  0.034519816  0.043237377   0.11208107   0.02761395  0.028064377  0.034070264  0.089748591 
  373000     -1793864    12054.444   -748.27616     77.00853    88.922483    81.249922    1600.3233  0.033965138  0.034811966  0.039993584   0.10877069  0.027357957   0.02769964  0.031682964  0.086740561 
  374000   -1793836.3    12040.328   -582.37656     77.00853    88.922483    81.249922    1598.4493  0.034694973  0.033580125  0.042144453   0.11041955  0.028047015  0.027382252  0.033123019  0.088552285 
  375000   -1793831.8    12104.397   -631.73353     77.00853    88.922483    81.249922    1606.9549  0.033648208  0.034054084   0.04048927   0.10819156  0.027525212  0.028041218  0.032203894  0.087770324 
  376000   -1793873.9    12100.351   -759.16168     77.00853    88.922483    81.249922    1606.4178  0.033599794  0.034294741  0.041802931   0.10969747  0.027492833   0.02840113  0.032968524  0.088862487 
  377000   -1793885.1    12039.699   -908.24085     77.00853    88.922483    81.249922    1598.3658  0.033695881  0.034293468  0.041749522   0.10973887  0.027782559  0.028257887   0.03270839  0.088748836 
[...]
  907000   -1793844.6    12072.346    -232.1507     77.00853    88.922483    81.249922    1602.6999  0.034624151  0.036516569  0.042501886   0.11364261  0.028102611  0.029963202   0.03373672  0.091802533 
  908000   -1793826.3    12055.957   -747.26036     77.00853    88.922483    81.249922    1600.5242  0.035184168  0.035575121  0.043068032   0.11382732  0.028450996   0.02934401  0.034343725  0.092138732 
  909000   -1793849.1    12073.877   -1020.9499     77.00853    88.922483    81.249922    1602.9031  0.034168278  0.035778387  0.043407161   0.11335383   0.02791104  0.028954928  0.033425506  0.090291474 
  910000   -1793825.4    12038.339   -391.83774     77.00853    88.922483    81.249922    1598.1852  0.033788224  0.036059485  0.043231889    0.1130796  0.027359051  0.029669684  0.033708511  0.090737246 
  911000     -1793905    12079.509   -991.65048     77.00853    88.922483    81.249922    1603.6508  0.034682043  0.035305245  0.042685818   0.11267311  0.027962526  0.028829286    0.0334161  0.090207912 
  912000   -1793908.9    12067.987   -684.93497     77.00853    88.922483    81.249922    1602.1212  0.033806474  0.035463766  0.042865082   0.11213532  0.027110583  0.028780702  0.033222808  0.089114093 
  913000     -1793863    12059.942   -732.63161     77.00853    88.922483    81.249922    1601.0532  0.034085571  0.036677319  0.043538868   0.11430176  0.027669101  0.030443651  0.034181838   0.09229459 
  914000   -1793800.6    12117.409   -212.15208     77.00853    88.922483    81.249922    1608.6823  0.034684774  0.035244471  0.042809032   0.11273828  0.028085934  0.029090077  0.033875136  0.091051147 
  915000   -1793902.6    12022.771   -997.68637     77.00853    88.922483    81.249922    1596.1185  0.034206551  0.035441583  0.044014888   0.11366302  0.027616949  0.029379925   0.03426436  0.091261233 
  916000     -1793848    12051.659   -727.19295     77.00853    88.922483    81.249922    1599.9536  0.034546404  0.035938982  0.041886508   0.11237189  0.027824552  0.029585193  0.032640093  0.090049837 
  917000   -1793906.3    12016.524   -1107.9328     77.00853    88.922483    81.249922    1595.2891  0.034695513   0.03522553  0.042540353    0.1124614  0.028253221  0.029122276  0.032953521  0.090329018 
  918000   -1793848.2    12019.208   -621.17012     77.00853    88.922483    81.249922    1595.6454  0.034890127  0.034903542  0.042519054   0.11231272  0.028308917  0.028891895  0.032811313  0.090012126 
  919000   -1793859.9    12022.473   -1038.0428     77.00853    88.922483    81.249922    1596.0788  0.034042032  0.035014934  0.043548212   0.11260518  0.027537026  0.028354571  0.033933905  0.089825502 
  920000   -1793868.1    11988.351   -726.93533     77.00853    88.922483    81.249922    1591.5489  0.035087716  0.035270627  0.043080722   0.11343906  0.028342376  0.029081896   0.03364237  0.091066642 
  921000   -1793833.7    12036.974   -317.01784     77.00853    88.922483    81.249922     1598.004  0.033941462  0.035559653  0.043054772   0.11255589  0.027472131  0.028918459  0.033603478  0.089994068 
  922000   -1793858.9    12079.626   -947.48738     77.00853    88.922483    81.249922    1603.6664  0.034344651  0.035458593  0.042945445   0.11274869   0.02794342    0.0289909   0.03355674   0.09049106 
  923000   -1793859.1    11998.802   -1013.1071     77.00853    88.922483    81.249922    1592.9363  0.033498527  0.035668526   0.04324793   0.11241498  0.026636452   0.02915113   0.03380994  0.089597522 
  924000   -1793903.5    12046.348   -918.33431     77.00853    88.922483    81.249922    1599.2484  0.033764057  0.035325449  0.042619919   0.11170942   0.02751154  0.028787797  0.033626215  0.089925552 
  925000   -1793938.8     12059.57   -1093.9463     77.00853    88.922483    81.249922    1601.0038  0.034599241  0.035149539  0.043678915    0.1134277  0.027782269  0.029323302  0.034317887  0.091423458 
  926000   -1793839.6     12049.45   -838.34179     77.00853    88.922483    81.249922    1599.6603  0.035034038  0.035197016  0.042845871   0.11307692  0.027609315  0.028803658  0.033271396   0.08968437 
  927000   -1793864.6    12062.573   -619.88514     77.00853    88.922483    81.249922    1601.4025  0.034768209  0.035486759  0.042497012   0.11275198  0.027747075   0.02862193  0.033239439  0.089608444 
  928000   -1793891.4    12046.502   -1132.9116     77.00853    88.922483    81.249922    1599.2689  0.034616659  0.035684653  0.043325734   0.11362705  0.027235875  0.029202379  0.033408836   0.08984709 
  929000   -1793833.9    12095.033   -909.06127     77.00853    88.922483    81.249922    1605.7118  0.034646602  0.035761003  0.042915331   0.11332294  0.028111888  0.029420766   0.03282569  0.090358344 
  930000   -1793872.6    12034.656    -918.3614     77.00853    88.922483    81.249922    1597.6963  0.035282838  0.035114766  0.043820103   0.11421771  0.028675912  0.028954543  0.033690493  0.091320947 
  931000   -1793887.4    11995.744    -738.4959     77.00853    88.922483    81.249922    1592.5304  0.034455632  0.035157725  0.042991748    0.1126051  0.027505383  0.029178566   0.03346025    0.0901442 
  932000   -1793873.3    12015.098   -778.33019     77.00853    88.922483    81.249922    1595.0997  0.034292134  0.034910394  0.044277709   0.11348024  0.027598705  0.029262104  0.034662402  0.091523211 
  933000   -1793747.2    12086.486   -182.20203     77.00853    88.922483    81.249922    1604.5771  0.034474764  0.035537937  0.041678447   0.11169115  0.027908179  0.029309836  0.032191045  0.089409061 
  934000   -1793883.6     12022.06   -792.97444     77.00853    88.922483    81.249922     1596.024  0.033737033  0.035303486  0.044833004   0.11387352  0.027429095  0.029298771  0.035049127  0.091776992 
  935000   -1793914.3     11943.24   -749.29853     77.00853    88.922483    81.249922    1585.5601  0.034153785  0.034558006  0.043005033   0.11171682  0.027377218  0.028172019  0.033469474  0.089018711 
  936000   -1793851.1    11979.476   -1046.1918     77.00853    88.922483    81.249922    1590.3706  0.034697542  0.035428163  0.042886998    0.1130127  0.028130853  0.029357699  0.033631956  0.091120508 
  937000   -1793871.5     12084.23   -1011.8487     77.00853    88.922483    81.249922    1604.2776  0.034484802   0.03534727  0.045376003   0.11520807  0.027949167  0.029475137  0.035052533  0.092476837 
  938000   -1793895.7     12046.17   -961.64056     77.00853    88.922483    81.249922    1599.2248  0.033896466  0.034962507  0.042460026     0.111319  0.028208631  0.029276291  0.033232405  0.090717327 
  939000   -1793915.7     12044.02   -703.47467     77.00853    88.922483    81.249922    1598.9393  0.035875884  0.035213979  0.042776792   0.11386666  0.029389354  0.029295871  0.033340963  0.092026188 
  940000   -1793837.2     12054.61   -728.24718     77.00853    88.922483    81.249922    1600.3452  0.035213246  0.035872709  0.042584601   0.11367056  0.029001579  0.029732036  0.033346295  0.092079909 
  941000   -1793872.1    11956.214   -586.23873     77.00853    88.922483    81.249922    1587.2824  0.034031603  0.034992262  0.044050348   0.11307421   0.02778931  0.028827262  0.035239422  0.091855994 
  942000     -1793878    12050.438   -1103.0418     77.00853    88.922483    81.249922    1599.7915  0.035546437  0.035490239  0.043780989   0.11481766  0.029355851  0.029273426  0.034234324  0.092863601 
  943000   -1793873.7    12007.335   -650.49463     77.00853    88.922483    81.249922    1594.0692  0.034600734  0.035877573  0.043049008   0.11352732  0.027795775  0.029177773  0.033654371  0.090627919 
  944000   -1793817.8    12080.882   -255.34837     77.00853    88.922483    81.249922    1603.8331  0.034630581  0.035243717  0.044624282   0.11449858  0.028061686  0.029206137  0.034468007  0.091735829 
  945000   -1793831.4    12046.377   -886.71864     77.00853    88.922483    81.249922    1599.2523  0.035666158  0.036212665  0.042862951   0.11474177  0.028871196  0.029331625  0.032908749   0.09111157 
  946000   -1793892.3     11965.95   -1410.3477     77.00853    88.922483    81.249922     1588.575  0.034927513  0.035495754  0.043996227   0.11441949  0.027967833  0.028667668    0.0336627  0.090298201 
  947000   -1793869.1     12068.37    -644.4168     77.00853    88.922483    81.249922     1602.172  0.034736571  0.036052479  0.044902026   0.11569108  0.027084442  0.029033913  0.034480212  0.090598567 
  948000   -1793886.3    12097.596   -1285.1819     77.00853    88.922483    81.249922     1606.052  0.035531628  0.035353751  0.042841091   0.11372647  0.027641803  0.028414933  0.033245937  0.089302673 
  949000     -1793874    12044.663   -1392.8904     77.00853    88.922483    81.249922    1599.0247  0.035989293  0.035340658  0.045047392   0.11637734  0.028482426  0.029095395  0.035432461  0.093010282 
  950000   -1793908.6    12072.552   -805.73185     77.00853    88.922483    81.249922    1602.7273   0.03508371  0.036189821  0.043146579   0.11442011  0.027513974  0.029296991  0.033273555   0.09008452 
  951000   -1793850.7    12031.208   -696.63654     77.00853    88.922483    81.249922    1597.2385  0.036529849  0.036171795  0.043908914   0.11661056  0.028996914  0.028872332   0.03431609  0.092185336 
  952000   -1793870.3     12097.99   -1111.5469     77.00853    88.922483    81.249922    1606.1044  0.034438458  0.036151201  0.043571903   0.11416156  0.027241064  0.029203938  0.033502334  0.089947336 
  953000     -1793850    12078.182   -162.44429     77.00853    88.922483    81.249922    1603.4746  0.034814207  0.035758899  0.044562776   0.11513588  0.027502524   0.02836012  0.033985722  0.089848366 
  954000   -1793831.9    11994.899   -508.43109     77.00853    88.922483    81.249922    1592.4182  0.036302142  0.036527647  0.044444086   0.11727387  0.028807743  0.028675652  0.034588607  0.092072002 
  955000   -1793882.8    12101.424    -395.8491     77.00853    88.922483    81.249922    1606.5603  0.034908207  0.037491309  0.042694244   0.11509376  0.027404269  0.029262415  0.033243528  0.089910212 
  956000   -1793883.1      12024.5   -610.67223     77.00853    88.922483    81.249922     1596.348  0.034605816  0.036516162  0.043718868   0.11484085  0.026860816  0.029053126  0.034141186  0.090055127 
  957000   -1793874.2    12086.097   -217.24301     77.00853    88.922483    81.249922    1604.5255   0.03556096  0.037142029  0.042756345   0.11545933  0.027111852  0.029400095  0.032652717  0.089164664 
  958000   -1793876.1     12055.19   -1090.3207     77.00853    88.922483    81.249922    1600.4223   0.03636209  0.037036048  0.043566532   0.11696467  0.028191003  0.029666821   0.03323992  0.091097745 
  959000   -1793875.6    12055.884   -857.72973     77.00853    88.922483    81.249922    1600.5144  0.036967201  0.037148487  0.045128935   0.11924462  0.028426551  0.028774458  0.034572181   0.09177319 
  960000   -1793907.5    12076.415   -637.68008     77.00853    88.922483    81.249922      1603.24  0.035879099  0.036311197  0.043172542   0.11536284  0.028360732  0.028729529  0.033245399   0.09033566 
  961000   -1793850.8    12046.698   -597.27313     77.00853    88.922483    81.249922    1599.2949  0.035656544  0.037110725  0.044756304   0.11752357   0.02772843   0.02992799  0.034669029  0.092325448 
  962000   -1793852.3      12052.4   -359.10628     77.00853    88.922483    81.249922    1600.0519  0.036477299  0.037300891   0.04327578   0.11705397  0.028890569  0.030235092  0.033185704  0.092311365 
  963000   -1793821.1    11944.507   -163.93054     77.00853    88.922483    81.249922    1585.7283   0.03640322  0.036609082  0.043421384   0.11643369  0.029297252  0.029248777  0.033608605  0.092154634 
  964000   -1793922.1    12124.287   -711.95978     77.00853    88.922483    81.249922    1609.5954  0.036067427  0.036307095  0.044080782    0.1164553  0.028407883  0.028339525  0.034184473   0.09093188 
  965000   -1793867.5    12060.387   -527.62609     77.00853    88.922483    81.249922    1601.1123  0.035636427   0.03702823  0.043143323   0.11580798  0.028269677   0.03024869  0.033430248  0.091948615 
  966000   -1793868.5    12101.346   -714.19706     77.00853    88.922483    81.249922    1606.5499  0.035457224  0.036430772  0.044103604    0.1159916  0.027771681  0.029362226  0.034203435  0.091337342 
  967000   -1793826.8    12046.516   -343.19748     77.00853    88.922483    81.249922    1599.2708  0.036328769  0.036710789  0.042560011   0.11559957  0.029210509  0.029862922  0.032696693  0.091770124 
  968000   -1793849.5    12036.365   -479.48997     77.00853    88.922483    81.249922    1597.9232  0.035745292  0.036487211  0.044714233   0.11694674  0.028301594  0.029672812  0.034238764   0.09221317 
  969000   -1793867.9    12035.626   -725.63786     77.00853    88.922483    81.249922    1597.8251  0.035295018  0.036794817  0.043506737   0.11559657  0.027828976  0.029678058   0.03354922  0.091056253 
  970000   -1793871.3    12062.987   -759.63936     77.00853    88.922483    81.249922    1601.4573  0.035486536  0.036094203  0.042902409   0.11448315  0.028231781  0.028460761  0.032850988   0.08954353 
  971000   -1793829.9    12063.966   -240.35796     77.00853    88.922483    81.249922    1601.5874  0.035527774   0.03590739  0.045282502   0.11671767  0.027973324  0.028774794  0.035326404  0.092074522 
  972000   -1793831.3    11981.438   -819.11048     77.00853    88.922483    81.249922    1590.6311   0.03596675  0.036536549   0.04415765   0.11666095  0.028302095  0.029427328  0.033167777  0.090897199 
  973000   -1793876.5    11985.838   -505.48024     77.00853    88.922483    81.249922    1591.2152  0.035050034  0.036763521  0.043532193   0.11534575  0.028341645  0.029821506  0.033970133  0.092133284 
  974000   -1793885.5    12086.431   -364.92335     77.00853    88.922483    81.249922    1604.5698  0.034568096  0.037083371  0.043356378   0.11500784  0.027737202  0.029865858  0.033495162  0.091098221 
  975000   -1793856.3    12087.107   -1174.4995     77.00853    88.922483    81.249922    1604.6596  0.035338381  0.036397152  0.043532734   0.11526827  0.028252142  0.029057438  0.032758241  0.090067821 
  976000   -1793850.1    12056.802   -605.44965     77.00853    88.922483    81.249922    1600.6363   0.03579213  0.037001632  0.044953142    0.1177469  0.028899796  0.029553672  0.034417696  0.092871164 
  977000   -1793839.4    12065.178   -1010.3563     77.00853    88.922483    81.249922    1601.7482  0.035858609  0.036954345  0.042206375   0.11501933  0.028383258  0.029180003  0.032536825  0.090100086 
  978000   -1793890.6    12027.682   -814.55127     77.00853    88.922483    81.249922    1596.7703  0.035130263  0.036590202  0.044271209   0.11599167  0.028378919  0.028890124  0.033935726  0.091204769 
  979000     -1793867     12102.76   -611.78663     77.00853    88.922483    81.249922    1606.7375   0.03562888  0.037068504  0.043603053   0.11630044  0.028520323  0.029640799  0.033050842  0.091211964 
  980000   -1793814.4    12026.236   -945.19752     77.00853    88.922483    81.249922    1596.5785  0.036198951  0.036794163  0.043443672   0.11643679  0.028993928  0.029498601   0.03269519  0.091187719 
  981000   -1793892.9    12006.472   -956.60306     77.00853    88.922483    81.249922    1593.9546   0.03524419  0.037130255  0.044046435   0.11642088  0.028401056  0.029713171  0.034096191  0.092210419 
  982000   -1793881.4    12034.615   -1074.0938     77.00853    88.922483    81.249922    1597.6907  0.035519084  0.037079798  0.042850009   0.11544889  0.028228868  0.029184182   0.03320522   0.09061827 
  983000   -1793891.5    12089.743   -762.79275     77.00853    88.922483    81.249922    1605.0095  0.034937882   0.03688616  0.043728576   0.11555262  0.027869531   0.02874506  0.033908988  0.090523578 
  984000   -1793932.8    12099.768   -1022.9414     77.00853    88.922483    81.249922    1606.3404  0.035957153    0.0378122  0.042333403   0.11610276  0.028392522  0.029902752  0.032464881  0.090760155 
  985000   -1793825.7    12034.692   -334.64357     77.00853    88.922483    81.249922     1597.701  0.035252855  0.037004797  0.043662682   0.11592033  0.028120381  0.028942745  0.033495515  0.090558641 
  986000   -1793860.3    12077.648   -663.85933     77.00853    88.922483    81.249922    1603.4038  0.035395269  0.037479354  0.044196483   0.11707111  0.028352655  0.029263007  0.033195874  0.090811536 
  987000   -1793831.7     12056.49   -754.09867     77.00853    88.922483    81.249922    1600.5949  0.035796761  0.037617486   0.04252273   0.11593698   0.02803961  0.029669349  0.032700814  0.090409773 
  988000   -1793868.8    12078.555   -972.75737     77.00853    88.922483    81.249922    1603.5242   0.03518165  0.037281677   0.04351469   0.11597802  0.027868046  0.029286895  0.034027805  0.091182746 
  989000   -1793891.1    12010.245   -1056.2201     77.00853    88.922483    81.249922    1594.4555  0.036018517   0.03740488  0.043254198   0.11667759  0.028719597  0.028968652  0.033337565  0.091025814 
  990000   -1793814.6    12052.938    -822.6195     77.00853    88.922483    81.249922    1600.1233  0.035606609  0.037541273  0.044205659   0.11735354  0.028715655   0.02871963  0.033859529  0.091294815 
  991000   -1793943.2    12035.791   -845.63935     77.00853    88.922483    81.249922    1597.8469  0.034983557  0.038054538  0.044755459   0.11779355  0.028525741  0.029717238  0.033914353  0.092157332 
  992000   -1793777.7    12053.206   -259.35263     77.00853    88.922483    81.249922    1600.1589  0.035136131   0.03768517  0.043659611   0.11648091  0.028574145  0.029006657   0.03392513  0.091505932 
  993000   -1793878.6    12087.514   -597.54008     77.00853    88.922483    81.249922    1604.7135  0.034328088   0.03822407  0.043464675   0.11601683  0.027815674  0.028923271  0.033980375   0.09071932 
  994000   -1793875.5     12047.47   -582.86883     77.00853    88.922483    81.249922    1599.3974  0.035665757  0.038384856  0.043342604   0.11739322  0.028907364  0.029402169  0.033208902  0.091518435 
  995000   -1793839.6    12032.533   -207.09809     77.00853    88.922483    81.249922    1597.4144  0.035346369   0.03786379  0.045106125   0.11831628  0.028056658  0.029270437  0.034237683  0.091564779 
  996000   -1793885.3    12032.077   -761.12322     77.00853    88.922483    81.249922    1597.3539  0.035855319  0.037176759  0.043892594   0.11692467  0.028794563  0.028782899  0.033620997  0.091198459 
  997000   -1793839.6    12034.055   -594.14159     77.00853    88.922483    81.249922    1597.6164  0.035420066  0.037882118  0.044771073   0.11807326  0.027779697  0.028895187   0.03405929  0.090734174 
  998000   -1793968.7    12092.391   -1501.5934     77.00853    88.922483    81.249922     1605.361  0.034808282  0.037490822  0.043907379   0.11620648  0.027931157  0.029391133  0.034327958  0.091650248 
  999000   -1793872.1    12074.084   -439.68163     77.00853    88.922483    81.249922    1602.9306  0.035724242  0.037456224  0.043568268   0.11674873  0.028861621  0.029219335  0.032842618  0.090923574 
 1000000   -1793890.3    12018.659   -1192.1617     77.00853    88.922483    81.249922    1595.5725  0.035236114  0.037449401   0.04442798   0.11711349  0.028333708  0.029548702  0.034044793  0.091927203 
Loop time of 119551 on 15 procs for 1000000 steps with 58275 atoms

Pair  time (%) = 86393.3 (72.2645)
Kspce time (%) = 28870.1 (24.1487)
Neigh time (%) = 1653.62 (1.38319)
Comm  time (%) = 1863.78 (1.55898)
Outpt time (%) = 1.84291 (0.00154152)
Other time (%) = 768.809 (0.643078)

Nlocal:    3885 ave 3921 max 3819 min
Histogram: 3 0 0 0 1 1 1 2 3 4
Nghost:    18524.1 ave 18662 max 18379 min
Histogram: 3 2 1 0 0 0 3 3 0 3
Neighs:    1.49233e+06 ave 1.53114e+06 max 1.43799e+06 min
Histogram: 1 0 1 3 1 1 2 2 1 3

Total # of neighbors = 22384988
Ave neighs/atom = 384.127
Neighbor list builds = 26911
Dangerous builds = 0
