
variable      mytemp equal  1600
# ------------------- Configuration ---------------------
read_data	CrO.dat
  orthogonal box = (0 0 0) to (77.301 89.2602 81.5585)
  1 by 5 by 3 MPI processor grid
  reading atoms ...
  58275 atoms

mass		1  15.9994
mass            2  51.9961

# -------------------- FORCE FIELDS ----------------------
pair_style buck/coul/long 10.0 10.0
pair_coeff    * * 1e-30 1e-30 0.0
pair_coeff    1 2 1204.18 0.3165   0.0
pair_coeff    1 1 9547.96 0.21916  32.0

kspace_style    pppm 0.0001



##-------------------- energy minimization ---------------

#compute   aE   all pe/atom
#min_style  fire

thermo          100
thermo_style    custom step pe pxx pyy pzz pxy pxz pyz lx ly lz temp

minimize      1e-8 1e-8 1000 1000
WARNING: Resetting reneighboring criteria during minimization (../min.cpp:168)
PPPM initialization ...
  G vector (1/distance) = 0.308704
  grid = 72 80 75
  stencil order = 5
  estimated absolute RMS force accuracy = 0.00180078
  estimated relative force accuracy = 0.000125057
  using double precision FFTs
  3d grid and FFT values/proc = 58144 28800
Memory usage per processor = 12.4981 Mbytes
Step PotEng Pxx Pyy Pzz Pxy Pxz Pyz Lx Ly Lz Temp 
       0   -1797379.3   -136346.86   -136350.64   -33589.325    61.399422    73.235858    73.781272       77.301      89.2602      81.5585            0 
      28   -1805569.3    -86113.38   -86162.384   -186537.16   -37.066666    56.551387     109.1216       77.301      89.2602      81.5585            0 
Loop time of 15.9775 on 15 procs for 28 steps with 58275 atoms

Minimization stats:
  Stopping criterion = energy tolerance
  Energy initial, next-to-last, final = 
        -1797379.27408     -1805569.29258     -1805569.30664
  Force two-norm initial, final = 821.914 1.35861
  Force max component initial, final = 16.7665 0.0293895
  Final line search alpha, max atom move = 0.0078125 0.000229605
  Iterations, force evaluations = 28 122

Pair  time (%) = 12.3708 (77.4262)
Kspce time (%) = 3.3868 (21.1973)
Neigh time (%) = 0 (0)
Comm  time (%) = 0.138562 (0.86723)
Outpt time (%) = 0 (0)
Other time (%) = 0.0813716 (0.509289)

Nlocal:    3885 ave 3993 max 3775 min
Histogram: 6 0 0 0 0 0 0 6 0 3
Nghost:    18518.8 ave 18745 max 18293 min
Histogram: 6 0 0 0 2 1 0 0 0 6
Neighs:    1.45381e+06 ave 1.51056e+06 max 1.3872e+06 min
Histogram: 1 1 1 1 2 3 1 2 1 2

Total # of neighbors = 21807158
Ave neighs/atom = 374.211
Neighbor list builds = 0
Dangerous builds = 0

## --------------------- system relax --------------------
#dump          1 all xyz 100 xyz/all.xyz
#dump_modify   1 element O Cr

velocity      all create ${mytemp} 4928459 dist gaussian
velocity      all create 1600 4928459 dist gaussian
fix           1 all npt temp ${mytemp} ${mytemp} 0.1 iso 0.0 0.0 2
fix           1 all npt temp 1600 ${mytemp} 0.1 iso 0.0 0.0 2
fix           1 all npt temp 1600 1600 0.1 iso 0.0 0.0 2
run      50000
PPPM initialization ...
  G vector (1/distance) = 0.308704
  grid = 72 80 75
  stencil order = 5
  estimated absolute RMS force accuracy = 0.00180078
  estimated relative force accuracy = 0.000125057
  using double precision FFTs
  3d grid and FFT values/proc = 58144 28800
Memory usage per processor = 10.2481 Mbytes
Step PotEng Pxx Pyy Pzz Pxy Pxz Pyz Lx Ly Lz Temp 
      28   -1805569.3   -63184.215   -63270.604   -163732.28    5.6783899    99.825245    228.20727       77.301      89.2602      81.5585         1600 
     100   -1799612.5   -21126.703   -20612.159   -132674.09   -403.51632    72.681245    231.78791    77.152164    89.088338    81.401467    837.29839 
     200   -1799191.8    15110.975    16787.178   -102496.74    408.14771    538.00964    532.63006    76.873796    88.766903    81.107767    869.22914 
     300   -1798981.1    39137.167    40092.538   -82932.519   -58.533316    738.75655    590.28538    76.706367    88.573571    80.931116    965.87793 
     400   -1798347.5    51136.031     50454.42   -71633.842   -891.69916    194.23911   -107.82144    76.645299    88.503056    80.866685     1025.169 
     500   -1797803.1    50578.103    51071.255   -69031.198    493.30001    1019.3082     297.6477    76.672032    88.533925    80.894891    1106.6012 
     600   -1797159.1    45889.576    45769.234   -71511.211    42.048201    93.430697   -14.920864    76.743426    88.616364    80.970216    1181.7079 
     700   -1796585.3    41895.981    41258.872   -74316.476   -418.26903    174.09194   -75.968025    76.813895    88.697735    81.044567    1270.7558 
     800   -1795910.7    39554.183    39828.191   -75428.099    373.22115    502.72045    241.72961    76.864262    88.755894    81.097708    1346.5678 
     900   -1795335.5     39724.08    40097.651   -74016.877    498.82095    84.756254    83.499852    76.898423    88.795341     81.13375    1430.6657 
    1000   -1794693.3    40583.685    39488.197   -73304.167   -393.29676   -280.35771    51.309732    76.928054    88.829556    81.165014    1494.1347 
    1100   -1794204.6    40574.752    40658.945   -72421.568   -36.316946   -270.34919   -595.50846    76.959622    88.866007     81.19832    1558.8956 
    1200   -1793821.2    37897.961    39083.866   -73435.607    1522.3432    295.25113    218.98891    76.994041    88.905752    81.234635    1607.6974 
    1300   -1793592.3    36772.311    36216.579    -74701.63   -134.43569    278.48029   -283.50564    77.022656    88.938793    81.264826    1633.0466 
    1400   -1793554.8    35896.115    34731.732   -75801.692    306.66265   -199.66366   -268.02736    77.036523    88.954806    81.279457     1621.793 
    1500   -1793785.4    33119.518     35111.95   -77037.971    562.22882    579.96715    305.78936    77.032171     88.94978    81.274864    1600.4085 
    1600   -1793981.7    35002.104    34998.166   -75756.535    604.69889    177.14432    302.75697    77.011989    88.926477    81.253572    1581.5032 
    1700   -1794021.8     37928.19    37760.433   -73467.143   -316.83639   -206.14051    118.22448    76.987512    88.898213    81.227746    1579.1672 
    1800   -1793900.3    39990.063    40199.661   -71383.887     392.6118    25.470846    561.71082     76.97593    88.884838    81.215526    1593.7962 
    1900   -1793738.2    39704.044     40315.86   -71378.736    149.02398    132.75787    344.38867     76.98549    88.895878    81.225613    1609.1761 
    2000   -1793704.5    37174.462    37639.255   -73299.585   -339.53121    150.91189    -192.4819    77.007982    88.921849    81.249343    1617.1293 
    2100   -1793776.6    34895.459    34797.955   -75975.576    244.15476   -200.71019    69.752123    77.025678    88.942283    81.268014    1608.5361 
    2200     -1793852    34565.547    34515.188   -75700.675   -162.75942    42.010968    70.154378    77.023988    88.940332    81.266231    1588.8032 
    2300   -1793925.2    36504.451    35747.382   -74948.186   -860.19731   -48.318905   -1089.5065    77.006362    88.919979    81.247634    1585.1436 
    2400   -1793903.7    37499.556    38751.905   -72930.782    49.116243    776.53508    438.10647    76.987467     88.89816    81.227698    1593.0793 
    2500   -1793837.3    40104.062    39512.083   -71368.488   -565.85646   -57.359464   -860.74081    76.981947    88.891786    81.221874    1606.7736 
    2600   -1793788.2    38699.221    38310.452   -72904.978   -321.52382    474.78061    205.69321    76.994806    88.906635    81.235441    1613.8437 
    2700   -1793776.5    35911.971    36846.776    -74793.56   -157.81791     183.1188     111.0604     77.01345    88.928163    81.255113    1605.7217 
    2800   -1793834.5    34786.329    33599.565   -75505.455    311.79769    294.22899    333.47267    77.022032    88.938073    81.264167    1594.9551 
    2900   -1793909.9    35231.425    34710.821   -75607.184    95.758431   -491.66795    524.76825    77.014214    88.929046    81.255919    1593.8966 
    3000   -1793920.1    37153.932     37112.34   -73664.864   -473.47104   -364.74579   -161.17112    76.997943    88.910257    81.238751    1599.6007 
    3100     -1793829    39020.558    38659.746   -72849.242   -532.35499   -495.29908   -124.36301    76.989553    88.900569    81.229899    1600.8894 
    3200   -1793801.5    39254.103    37960.478   -73168.758   -9.4034178   -21.273984   -133.89974    76.994484    88.906263    81.235102     1606.488 
    3300   -1793810.5    37510.778    37101.491   -74564.057   -248.54563   -633.65854    110.06599    77.006971    88.920682    81.248277    1605.0473 
    3400   -1793860.6    35968.356     35045.03   -75880.309   -368.86779   -184.73251    239.74933    77.015533    88.930568     81.25731    1602.1313 
    3500   -1793826.2    36184.049    36309.971   -75785.392    107.15463   -866.64777    -248.2609     77.01327    88.927955    81.254923    1589.6082 
    3600   -1793824.6    36767.352     36907.89   -74202.911   -147.14482   -184.24102   -322.47144    77.004119    88.917389    81.245268    1590.1356 
    3700   -1793836.8    37909.287    37712.501   -73507.221   -318.05775   -64.614316    86.831987    76.995722    88.907692    81.236408    1599.7482 
    3800   -1793826.7    39548.076    37414.744   -73342.379   -274.22158   -1000.5552   -679.50662    76.995043    88.906909    81.235692    1605.6892 
    3900   -1793774.9    37099.739    37639.717   -73598.057   -92.016247   -724.73825    116.44744    77.002305    88.915294    81.243354    1597.6977 
    4000   -1793836.9    36424.352    36656.614   -74795.554   -464.27696   -364.35485   -339.24191    77.010026    88.924209      81.2515    1598.8097 
    4100   -1793862.9      36745.7    35858.777   -75188.545    567.61458   -303.93827    234.37184    77.010551    88.924815    81.252054    1595.6422 
    4200   -1793871.7    36043.477    36746.199   -74709.866    372.43389   -69.032767    152.39116    77.004427    88.917744    81.245592    1597.7181 
    4300   -1793835.1    37176.445    37714.415   -73736.471   -191.24135   -2.3607181    511.11792    76.998137    88.910482    81.238957     1599.401 
    4400   -1793810.3    38286.986     37960.87   -73834.872    -45.78681   -659.01463   -567.00324    76.997497    88.909742    81.238281    1601.4817 
    4500   -1793774.9    37951.315    36984.339   -74082.074   -21.084008   -587.01621     506.0897    77.003219    88.916349    81.244318    1596.5989 
    4600   -1793810.2    37088.025    36333.098   -74444.812    18.558393   -466.89681     613.5579    77.009174    88.923225    81.250601    1595.2641 
    4700   -1793841.3    36032.934    36428.185   -75734.608   -454.58424   -989.60659    456.55752    77.010173    88.924379    81.251655    1595.2766 
    4800   -1793848.4    37693.752     36582.58   -74695.486   -217.74707    -316.3365    549.50967    77.004666     88.91802    81.245845    1596.5569 
    4900   -1793852.1    37503.373    38114.178    -73937.35   -464.57302   -277.65047   -523.43566    76.998527    88.910931    81.239368    1601.8125 
    5000   -1793794.6     38725.35    37676.538   -73445.227    -518.4138    199.55103   -507.77603    76.997088     88.90927     81.23785    1597.4796 
    5100   -1793792.9    38015.147    37501.112   -74372.985   -142.19896   -430.05181    -207.7928    77.001161    88.913973    81.242146    1596.3318 
    5200   -1793833.9    36938.344    37253.812   -74728.284   -587.65742    305.47104    53.848315    77.005584     88.91908    81.246813    1597.6881 
    5300   -1793872.9    36745.587    36968.627   -75928.829   -85.015574    451.49873     48.34891    77.007732    88.921561     81.24908    1600.1457 
    5400   -1793828.6    38180.116     37311.46   -74824.657    803.03206   -219.25568     643.9353    77.005952    88.919505    81.247202    1594.8768 
    5500   -1793827.7    37079.891    37202.623   -75058.979   -161.21903    56.664587    668.90326    77.002822    88.915891    81.243899    1599.1375 
    5600   -1793792.2    38793.872    37471.289    -75042.22    455.23021   -326.78256    589.75868    77.001619    88.914502     81.24263    1598.7552 
    5700   -1793831.8    37978.504    36908.663   -74839.083   -121.28139   -358.96809    76.319754    77.002584    88.915616    81.243648    1603.6124 
    5800   -1793831.9    36583.378    37299.251   -75709.522    388.92293    249.35497    420.35459    77.004332    88.917635    81.245492    1598.4168 
    5900   -1793837.6     37842.34    36823.822   -74619.373    425.57196    981.98958    280.58145     77.00451     88.91784     81.24568     1594.845 
    6000   -1793826.8    37448.224     36634.31    -74566.41    119.19072    52.789735   -241.22601    77.003425    88.916587    81.244535    1592.9206 
    6100   -1793814.8     36874.76     37080.22   -74261.326   -13.309937   -72.864174   -79.387226    77.001942    88.914875    81.242971    1595.6182 
    6200   -1793862.1    37160.104     37624.74   -73946.486     434.8784    479.60723    243.25409    77.001485    88.914347    81.242488    1607.3682 
    6300   -1793835.7    37821.431    37146.711    -74718.54    207.81775    500.21588    87.697934    77.002702    88.915753    81.243773    1604.3661 
    6400   -1793898.9    37253.391    36236.988   -74663.531    240.02766    323.43473    275.21132    77.004637    88.917987    81.245814    1608.7398 
    6500   -1793864.9    36809.071    36917.457   -74007.824   -997.08144   -36.966166    68.548498    77.004975    88.918377    81.246171     1598.588 
    6600   -1793892.8    36203.423    37303.394   -73848.767    171.27733   -191.56391    835.86606    77.002794    88.915859     81.24387    1601.7058 
    6700   -1793840.6    37858.629    37309.795   -72835.817    149.33129    -243.0657    564.23938    76.999845    88.912453    81.240758    1598.2795 
    6800     -1793898    37954.356    37310.303   -73828.292   -290.73852    391.06709   -460.49973    77.000548    88.913265      81.2415    1610.3321 
    6900   -1793801.3    36053.223    37364.664   -73888.992    197.59631    52.318539    56.286029    77.004242    88.917531    81.245398    1598.8191 
    7000   -1793848.6    35172.109    36741.431   -74948.525    758.06813     367.0568    621.05328     77.00753    88.921327    81.248866    1602.6265 
    7100   -1793875.9    36251.958    35935.859   -74611.117   -288.18286   -240.21985     232.9825    77.006424    88.920051      81.2477    1602.6368 
    7200   -1793892.3     38213.07    37585.269   -73534.566   -178.79101    26.146257    239.54255    77.001516    88.914383    81.242521    1602.7567 
    7300   -1793909.6    36288.495    37764.272   -73559.214    244.59408    427.56002   -113.99464    76.998035    88.910364    81.238849    1606.2111 
    7400   -1793870.5    37193.922     38153.42   -73034.355    5.2865687    173.96975    67.929332    76.998308    88.910679    81.239137    1604.6652 
    7500   -1793877.6    36832.554    36313.599   -72953.881   -12.592451     131.3424    445.24682    77.003768    88.916984    81.244898    1608.9107 
    7600   -1793838.5    36002.803    35872.722   -73708.142   -347.01824   -338.84034    50.394615    77.009265    88.923331    81.250697     1602.405 
    7700   -1793828.7    34687.178    36193.414   -74157.619     607.8883    433.35527    522.63432     77.00991    88.924076    81.251378    1597.6855 
    7800   -1793834.9      37310.5    36751.867   -73991.039   -679.75604    140.79027   -429.91222    77.004808    88.918185    81.245995    1596.6181 
    7900   -1793839.2    37314.437    38538.417   -73351.516     79.01027    293.61301    166.20602    76.998787    88.911232    81.239643    1597.4338 
    8000   -1793865.8    36702.682     37556.84   -74154.435    497.12356    311.75967    202.11758    76.997615    88.909878    81.238405    1602.2796 
    8100   -1793835.1    37805.935    37316.916   -73222.397    58.173858    349.99257   -303.59825    77.000758    88.913507    81.241721     1599.091 
    8200   -1793818.9     36722.78    37164.348   -74498.306   -167.23474    305.93095    -579.6006     77.00631    88.919919    81.247579    1597.7801 
    8300   -1793861.3    36432.569    36711.525   -74950.178   -351.67148    74.634251    -266.6567    77.008988    88.923011    81.250405    1604.4171 
    8400   -1793864.9    37341.138     36537.17   -75178.409   -253.41398   -61.014246    140.38384    77.007646    88.921461    81.248989    1605.8173 
    8500   -1793872.1    37016.335    36503.694   -74820.627    688.74034   -136.70495   -154.15886    77.003622    88.916814    81.244743    1606.1553 
    8600   -1793833.5    36937.245    38931.609   -74500.578    -924.4117    341.36542   -481.37216    76.999964    88.912591    81.240884    1597.6782 
    8700   -1793849.3    37724.451    38349.653   -73976.363   -197.96447    526.13259   -16.483942    77.000608    88.913335    81.241563    1596.7075 
    8800   -1793836.8    37941.456    36558.983   -75141.483   -6.6907214   -135.76373    139.73547    77.004394    88.917706    81.245557    1596.4372 
    8900   -1793889.5    37596.793    36429.405   -76014.956    442.25755   -223.65202    486.10596    77.007356    88.921127    81.248683    1607.2673 
    9000   -1793851.4    36907.249    37223.274   -75602.305    290.41345    806.38194    146.04179    77.007767    88.921601    81.249117    1605.4746 
    9100   -1793817.2    37334.421    37517.411   -75089.178    11.048677    488.41017    669.17542     77.00479    88.918164    81.245976    1600.8593 
    9200   -1793902.4    38423.759    36401.553   -75000.603    424.39429   -297.18183    213.40765    77.001584    88.914461    81.242593    1608.1841 
    9300   -1793864.9    37333.806    37782.847   -74142.419    209.17108    15.479504    257.54163    77.000988    88.913774    81.241965    1598.2188 
    9400   -1793895.7     37667.02    36458.551   -75211.945    417.19709    143.84537    571.92933    77.002856    88.915931    81.243935    1601.7896 
    9500   -1793852.9    37292.185    37301.167   -75076.212    272.68377     367.5518    420.97728    77.004084    88.917348    81.245231    1599.6906 
    9600     -1793860    37558.401    37615.794   -74686.716    270.06501    520.76673    187.09386    77.004283    88.917578    81.245441    1604.2621 
    9700   -1793847.8    37163.053    37447.823   -74816.592     619.4718   -423.05814    660.46245    77.004223    88.917509    81.245378    1605.0948 
    9800   -1793834.8    37364.301    37810.896   -75365.904    99.964547   -446.97978   -91.979779    77.004108    88.917376    81.245257    1600.9738 
    9900   -1793829.8    37838.058    37225.788   -74754.023   -132.65465     113.8355    -17.50641    77.003919    88.917158    81.245057    1595.6382 
   10000   -1793877.4    37404.729    37109.505   -74285.288   -169.74892    68.400158    65.255037    77.002361    88.915358    81.243413    1599.7331 
   10100   -1793872.7    37961.743    37105.803   -74250.351    877.06804    27.970091     676.3029    77.000263    88.912936    81.241199    1600.5866 
   10200   -1793783.6    37225.129    38472.217   -73902.038   -211.49468   -32.772173    175.29837    77.001204    88.914023    81.242192    1592.4506 
   10300   -1793857.4    36953.067    37181.397   -74539.084    -114.0486   -811.68289   -181.55513    77.004121    88.917391     81.24527     1606.389 
   10400   -1793839.9    37580.317    36869.682   -74045.101     286.6657   -166.19658    -160.4475    77.007281     88.92104    81.248604    1603.7013 
   10500   -1793889.2    36177.582    37093.357   -76061.353   -57.157015    288.05113   -119.80626    77.009108     88.92315    81.250532    1606.6683 
   10600     -1793863    37367.758    36351.209   -75055.032   -195.61389   -660.58046    146.89115    77.005736    88.919256    81.246974    1599.8386 
   10700   -1793885.2    38125.494    37799.834   -74663.327     396.4883     290.1511   -156.56121    76.999211    88.911721    81.240089    1602.5359 
   10800     -1793840    38086.168    39227.601   -74124.019    279.98205   -175.90653    333.94508    76.994541    88.906329    81.235162    1597.9814 
   10900   -1793842.2    38188.743    37427.206   -73747.204    122.76046   -229.81905    463.63799    76.997028    88.909201    81.237786    1599.6241 
   11000   -1793831.4    37561.769    37242.374   -75122.739    495.29838   -648.06317   -60.450247     77.00502    88.918429    81.246218    1598.2499 
   11100   -1793807.7    36488.432    36292.638    -74763.53     833.7741    257.77349    263.85406    77.010662    88.924944    81.252171    1595.1849 
   11200     -1793809    36728.077    37020.438   -75095.437   -433.13539   -19.149662   -176.40585    77.009762    88.923904    81.251221    1597.0912 
   11300   -1793786.8    37718.999    37298.468   -74056.878   -364.55397   -577.14489    133.54567    77.004793    88.918167    81.245979    1594.9122 
   11400   -1793781.6    37133.888    36724.451   -73902.206    100.83867   -525.79611   -703.22656    77.001164    88.913976     81.24215     1592.922 
   11500     -1793816    37851.554    37253.148   -73590.707    767.08231    317.08714    656.07615    76.998492    88.910892    81.239331    1594.5537 
   11600   -1793874.9    38144.075    37500.836   -73773.488    782.72273   -335.12137    244.04335    76.999132    88.911631    81.240006     1600.138 
   11700   -1793839.6    37557.701    37172.621   -74529.398   -859.23314    -538.5445    76.236688    77.002616    88.915653    81.243682    1595.6593 
   11800   -1793874.7    37040.556     36947.79   -75328.302     545.5529   -181.61428    373.98354    77.006578    88.920228    81.247862    1604.1062 
   11900   -1793829.3     37022.53    36239.625   -75386.709    132.30721   -46.762274    -360.9436    77.009207    88.923264    81.250636    1601.6133 
   12000   -1793849.4    36519.976    36510.417   -74865.641    153.30347    238.90066    -106.6459    77.008065    88.921946    81.249431    1604.8387 
   12100   -1793798.9    37017.801    37870.645   -73409.491   -165.06503    70.235299    636.43949     77.00364    88.916836    81.244763    1595.7111 
   12200   -1793793.2     38083.59    37288.069    -73522.16    214.95695   -148.91371    351.11728    77.000009    88.912643    81.240932    1590.4356 
   12300   -1793870.1    38318.349    37052.952   -73197.979    414.58141    513.50297    136.21577    77.000048    88.912688    81.240972    1597.4323 
   12400     -1793863    35948.461    37746.126   -73945.823    236.86184   -238.00362   -191.75975    77.002672    88.915718    81.243741    1598.7089 
   12500   -1793848.2    36312.525    36384.204   -74213.119   -612.19977   -209.56515    114.08637    77.006005    88.919567    81.247258    1602.0071 
   12600   -1793804.2    37320.496    36338.211   -73800.909    482.07189   -863.59861   -374.04103    77.008682    88.922658    81.250082    1600.5299 
   12700   -1793785.7     36596.63    36995.234   -74882.458    842.65032    158.60362    113.83498    77.008838    88.922838    81.250247    1598.3855 
   12800   -1793805.9    37113.845    37312.219   -74444.496   -647.86075    182.01825   -1081.9641    77.004911    88.918303    81.246103      1595.65 
   12900   -1793865.5      37536.1    37064.912   -74343.975    123.41228   -472.82355   -156.87712    76.999724    88.912314    81.240631    1597.8085 
   13000   -1793957.6    37679.677    38060.232   -73522.211    -56.19951   -85.185128    117.12861    76.996076    88.908101    81.236782    1607.7241 
   13100     -1793792    38499.737    37252.896   -74035.162   -555.17526    -17.71193    22.948212    76.998285    88.910652    81.239113    1589.4464 
   13200   -1793854.6    37020.525    36944.668   -74644.957    527.94075    850.54081   -745.76385    77.005276    88.918724    81.246488    1603.9676 
   13300   -1793842.1    36596.119    36242.613   -74979.327   -247.89223    21.394796   -685.50013    77.012577    88.927155    81.254192    1606.5176 
   13400   -1793817.5    36170.483    36293.255   -75848.719   -139.09976   -441.40198   -240.51038    77.014249    88.929086    81.255956    1602.1361 
   13500   -1793830.9    37332.308    36160.856   -75163.732    239.18151    -19.39514    662.98277    77.008381    88.922309    81.249764     1598.532 
   13600   -1793936.8     37506.47    38005.338   -74151.355   -41.697201    108.16646   -197.47472    76.998805    88.911252    81.239661    1607.7798 
   13700   -1793870.4    38273.243    39120.456     -73717.8   -160.89361    438.57048    193.58283    76.993042    88.904598    81.233581    1597.1132 
   13800   -1793847.5    38588.212    37651.023   -73686.815   -162.09235   -68.283838    254.32396     76.99572     88.90769    81.236406    1596.3745 
   13900   -1793844.4    36878.943    36767.718   -75159.873    838.48903    13.902198   -151.43412    77.004831    88.918211    81.246019    1600.8429 
   14000   -1793823.3    36374.769     36444.16   -76176.518    -465.9074   -534.13811    338.81564    77.013622    88.928362    81.255294    1602.2374 
   14100   -1793780.1     36566.14    35633.727   -75241.635    283.26081    186.77609    352.82152     77.01545    88.930473    81.257223    1598.2644 
   14200   -1793799.9    37624.173    36029.287   -74546.862    593.20063    -81.00652   -7.7756987    77.008625    88.922591    81.250022    1598.3228 
   14300   -1793864.5     37506.31    37534.291   -74044.076   -31.155934    -510.5348    10.742467    76.997964    88.910282    81.238774     1601.211 
   14400   -1793850.7    37947.507    38378.228   -73871.091    183.44587   -373.23928    457.80087    76.990784     88.90199    81.231198    1593.6967 
   14500   -1793867.4     38165.63    38258.586   -73107.111     189.3635    536.85486     198.1882    76.992419    88.903879    81.232923    1595.5282 
   14600   -1793879.4    36857.505    37194.443   -73547.838    152.93272   -219.25403    -101.0311    77.001663    88.914552    81.242676    1602.1041 
   14700   -1793807.8     36025.28    36259.938   -74827.615    508.87609    463.18458   -191.56488    77.011759    88.926211    81.253329    1599.3947 
   14800   -1793797.7    35620.031    36269.107   -75415.126   -487.28552    314.74706   -137.22316    77.016302    88.931456    81.258121    1601.7031 
   14900   -1793865.7    35370.215    36430.001   -74994.117     115.9979     167.0479    98.283635      77.0107    88.924988    81.252211    1609.0038 
   15000   -1793841.2     37471.39    37501.717   -74703.431    949.32184   -154.06412    785.94687    76.998866    88.911323    81.239725    1599.3433 
   15100   -1793838.3    39508.653    38579.871   -73657.388   -660.43661    64.017704    352.19707    76.989025    88.899959    81.229342    1591.7892 
   15200   -1793849.2    37566.302    39165.966   -74362.295   -314.08482    216.76774   -28.093141    76.989304    88.900282    81.229637    1591.1258 
   15300     -1793893    37790.179    37792.891   -74504.082   -634.33757   -446.25879    114.68568    76.998363    88.910743    81.239195    1600.8329 
   15400   -1793846.2     36742.81    37107.121   -75493.981    748.83685   -136.24016    705.29574    77.009975     88.92415    81.251446    1602.8064 
   15500   -1793803.6    35701.977    35834.749   -75779.031   -624.83734    11.086829    574.00482    77.018093    88.933524    81.260011     1604.375 
   15600     -1793790    36065.797    36729.221   -75705.447   -688.54896   -577.46103    726.12039    77.015473    88.930499    81.257247    1602.9185 
   15700   -1793809.8    37439.435    37364.512   -73670.928   -272.07449    745.50989    488.05793    77.003357    88.916509    81.244464    1597.9853 
   15800   -1793903.4    38139.162    38715.786   -73412.517    243.02019    579.51715     892.8487    76.991087    88.902341    81.231518    1600.9103 
   15900   -1793930.2    37989.348    38313.042   -72947.731   -469.75309    527.46629    193.38051    76.987321    88.897992    81.227545    1600.2697 
   16000   -1793840.6    38240.952     37941.26    -72851.83   -291.57434    934.40267    492.24311    76.994962    88.906815    81.235607    1591.5383 
   16100   -1793871.1    36779.733    36610.509   -74538.275    222.53345    373.92816   -88.206779    77.009234    88.923295    81.250664    1604.8647 
   16200   -1793791.8    35182.826    36289.391   -75808.944    105.10271    34.234714    5.7519138    77.018631    88.934146    81.260579    1602.2184 
   16300     -1793787    36060.912    35716.004   -75698.889   -700.12032    117.84304   -129.61427    77.015438    88.930459     81.25721    1602.5402 
   16400   -1793775.9    38318.403    37202.587   -74783.435    -53.14955   -333.97035    203.65812     77.00195    88.914884    81.242979    1594.3208 
   16500   -1793817.9    38441.932    39378.344   -73045.236    988.64466   -372.08284    30.412319    76.988473    88.899322     81.22876    1589.7945 
   16600   -1793903.4    38972.865    39230.014   -73384.705   -701.53511   -223.21786    537.23033    76.986535    88.897084    81.226715    1595.3701 
   16700   -1793874.2    37523.471    37489.117   -73874.836   -147.41484    45.521147   -186.92768    76.996668    88.908785    81.237406    1594.8165 
   16800     -1793881    35591.213    36253.038   -75249.632    936.75086   -462.45936    274.23296    77.010152    88.924356    81.251633    1605.9355 
   16900   -1793799.6    35820.006    36340.595   -75032.224   -291.52121   -199.09518    384.15794    77.017252    88.932554    81.259124    1604.6618 
   17000   -1793805.1    36000.342    35286.325   -74972.672    520.99393    99.514365    684.75385    77.014704    88.929611    81.256436    1607.1051 
   17100   -1793795.7    37844.158    36882.659   -73598.287    254.90715   -135.84649    734.86559    77.003743    88.916954    81.244871    1597.8863 
   17200   -1793895.2    38345.729    38730.958   -72861.183    1263.2261     350.7916    1153.5737    76.993163    88.904738    81.233708    1599.2991 
   17300   -1793903.6    38600.992    38660.653   -73513.755    273.62638   -360.75538   -36.398364    76.989531    88.900543    81.229876    1594.1707 
   17400   -1793881.8    37856.511    37846.256   -73807.005   -187.82119    105.65119    501.30474    76.994537    88.906324    81.235158    1594.7908 
   17500   -1793826.5    35642.136    36841.305   -74244.049    164.16212   -20.633512    676.47058     77.00531    88.918764    81.246524     1598.883 
   17600   -1793805.6    35364.521    36446.365   -75514.902    -71.54686   -18.096751     15.50927    77.014918    88.929859    81.256662    1606.2643 
   17700   -1793750.9    36235.248    36698.231   -74764.611    343.30583    261.12005     239.1368    77.016507    88.931693    81.258338    1599.5861 
   17800   -1793815.2    36016.529    36990.711   -75539.586      16.0731    177.84614    163.46536    77.009857    88.924015    81.251322    1600.1969 
   17900   -1793854.2     37287.77    38467.473   -75115.098    770.84938    854.13538    252.43586    76.997812    88.910105    81.238613    1593.9155 
   18000   -1793853.2    39400.966    39650.332   -74188.504   -591.96306    41.580802   -11.970039    76.989256    88.900226    81.229586    1587.9038 
   18100   -1793894.8    38468.085    39139.693   -73820.377    1014.3822   -285.12402     1141.642    76.991108    88.902365     81.23154    1597.6538 
   18200   -1793873.1    38170.245    37379.127   -74348.795    578.40697    42.064426    300.23046    77.003844    88.917071    81.244977    1606.0505 
   18300     -1793769    37082.888    35874.465   -75241.555   -256.09664   -519.98832    204.12587    77.017663    88.933028    81.259558    1601.6388 
   18400     -1793816    34700.335    35169.892   -76769.777    -75.55765   -475.39809    502.19161    77.023108    88.939315    81.265303     1608.449 
   18500   -1793838.2    36331.197    35835.622   -75490.931      239.505   -54.703677    612.19288    77.013052    88.927703    81.254692    1603.5663 
   18600   -1793867.3    37844.545    38224.416   -74393.202    70.028584    327.43957    25.638108    76.995058    88.906926    81.235707    1597.2403 
   18700   -1793913.1    39631.617    39451.104   -72802.835    730.35315    9.9984174     262.9469    76.980781     88.89044    81.220644    1596.7189 
   18800   -1793948.5    39511.804    39059.448   -72698.187    -221.3027    21.551473   -342.17268    76.981117    88.890828    81.220999    1602.9921 
   18900   -1793866.4    37357.061    37423.942   -75292.423    169.77322   -95.220933     114.1841    76.998044    88.910374    81.238858    1600.2418 
   19000   -1793824.2    35299.366    34629.361    -75983.85   -81.862654   -688.43958    11.444936    77.017631    88.932992    81.259524    1604.1837 
   19100   -1793779.2    35069.839    34678.887   -76413.932     31.08421     223.4579    402.14952    77.024952    88.941445    81.267248    1603.6183 
   19200   -1793752.1    36161.179    36916.537   -75288.816   -77.054322   -233.38335     171.6176    77.016074    88.931193    81.257881    1597.9109 
   19300   -1793854.5    37340.999    38032.308   -74672.227   -10.520819   -17.499184    22.493223    77.000027    88.912663     81.24095    1603.4079 
   19400   -1793887.5     39118.13    39051.968   -72670.977    255.53712   -229.16055      82.4442    76.986252    88.896757    81.226416    1597.1194 
   19500   -1793936.1    39209.101    38815.778   -73993.453   -307.79646   -653.06665   -144.61847    76.985576    88.895977    81.225704    1599.1288 
   19600   -1793828.1     37309.45    39022.804   -74085.865    740.27985    229.07977    700.70249    76.997863    88.910165    81.238667    1589.1995 
   19700   -1793868.9    35745.841    36147.289   -75326.057    884.00715   -266.83549    323.20894     77.01336     88.92806    81.255018     1606.938 
   19800   -1793738.9    35824.747    35153.596    -75928.84   -339.78394    396.07945    345.17949    77.021064    88.936956    81.263146    1599.7011 
   19900   -1793777.1    36458.183    36790.698   -75957.361    374.73778    148.67769   -93.339683    77.016144    88.931274    81.257955    1604.2744 
   20000   -1793793.1    37674.023    38033.635   -75056.691    137.03379   -396.95781    204.60997    77.002878    88.915956    81.243959    1595.5279 
   20100   -1793817.5    39655.315      38641.4   -73418.269   -143.60595   -495.61671    311.86038    76.989846    88.900907    81.230208    1586.2775 
   20200   -1793806.8    38525.456    40239.611   -73380.695   -864.78529   -138.32332    198.84468    76.985968    88.896429    81.226117    1579.4732 
   20300   -1793889.4    39146.457    38118.041   -73720.356   -362.85391    7.0206396    259.50134    76.994235    88.905976     81.23484    1597.7217 
   20400   -1793805.1    36330.296    36698.413   -75119.986    697.56377   -457.40364    668.63834    77.009546    88.923655    81.250993    1599.5068 
   20500   -1793767.7    36335.393    35813.992   -75866.875   -1.5412068    419.69825    318.63642    77.020293    88.936065    81.262332    1603.4824 
   20600   -1793712.9    35951.238    36070.035    -75540.15   -365.67155    826.78402    339.10169    77.019864     88.93557     81.26188    1594.7774 
   20700     -1793795    36457.039    36881.756    -75392.63   -248.37234    280.36586     -378.564    77.009381    88.923465     81.25082    1595.5791 
   20800   -1793889.1    37843.341    38411.593   -74095.834    211.48655    176.83071    82.326255    76.995523    88.907463    81.236198    1597.4836 
   20900   -1793923.7    38847.526    38832.778   -74122.043    -559.4205    388.57745   -115.61398    76.987545    88.898251    81.227781    1598.5602 
   21000   -1793862.1    39232.474     38818.39   -73363.103    185.80141    79.784013   -398.72375    76.990264     88.90139     81.23065    1595.2286 
   21100   -1793789.7    37411.875     36910.37   -75154.306   -36.519328    375.36609    265.53711    77.003369    88.916523    81.244476    1594.7742 
   21200   -1793829.8      36221.1    35510.954   -75609.531   -335.75328     183.4652   -169.43676    77.015384    88.930397    81.257153    1607.4606 
   21300   -1793803.4    35882.478    35489.695   -76168.914   -113.56631    -267.8481   -53.859403    77.017383    88.932705    81.259263    1604.3992 
   21400   -1793830.8    36995.666    36736.613   -74809.158     383.8843    -307.2688    405.92679    77.009517    88.923622    81.250963    1601.6648 
   21500   -1793908.6     38402.13    38106.829   -74379.421    351.08055    77.080379   -40.657122    76.998175    88.910525    81.238996    1602.9809 
   21600   -1793881.7    39400.654     38250.33   -74139.403   -276.82422     432.7073    218.48431    76.991213    88.902487    81.231651    1594.6852 
   21700   -1793855.2    38687.197     38740.69    -73805.38    438.58477   -467.45447    47.958658    76.993406    88.905018    81.233965    1594.4152 
   21800   -1793841.3    37180.477    37549.831   -75700.386   -15.518141    126.42402    143.57135     77.00338    88.916535    81.244488     1600.784 
   21900   -1793865.5    36421.831    36043.241   -75882.788    358.96266   -359.08249    634.84793    77.013448    88.928161    81.255111    1611.3144 
   22000   -1793780.1    37231.997    35788.184   -75769.427    215.06957   -182.89922   -197.85373    77.016084    88.931204    81.257891    1599.7315 
   22100   -1793876.5    36492.168    36883.204   -75479.626    372.93616    108.67352    700.93884    77.010358    88.924593     81.25185    1606.6952 
   22200   -1793875.8    36939.279    37099.688   -74798.307    182.25871    33.618294   -417.57806    76.999376    88.911912    81.240264    1599.6003 
   22300   -1793854.6    39268.191    37315.506   -73620.452    684.59479   -387.88254    777.14079    76.990447    88.901602    81.230843    1593.9346 
   22400   -1793866.2    38163.616    38673.807   -74025.012    493.81253    295.05123   -159.78257    76.989549    88.900565    81.229896     1596.729 
   22500   -1793859.6    37743.399    37450.082   -73636.081    -248.3157    28.308784   -120.82997    76.997022    88.909193    81.237779    1600.0425 
   22600   -1793816.5    36426.972    36495.173   -74363.101   -230.18019    275.85529    289.96043    77.007272    88.921029    81.248594    1599.5648 
   22700   -1793782.4    36304.466    35953.995   -75677.847    590.59809   -253.12097    206.64621    77.013064    88.927717    81.254705      1598.66 
   22800   -1793842.4    35698.017    35737.167   -75466.988    279.38766   -143.85854   -467.70231    77.011611     88.92604    81.253173    1604.9909 
   22900   -1793857.4     37245.07    36558.808   -74380.488   -305.38031    52.177286   -3.5007372    77.003678     88.91688    81.244803    1600.9519 
   23000     -1793838    37507.497    38021.157   -74282.345    -643.6451    646.08162   -32.463573    76.995905    88.907904    81.236601    1593.5498 
   23100   -1793890.1    38185.765    37814.562   -73307.444   -433.94385   -63.852272    78.584909    76.993418    88.905032    81.233977    1599.0776 
   23200     -1793842    36973.302    37573.126   -73447.215   -99.035718    18.658054   -296.99069    76.997536    88.909787    81.238322    1596.3572 
   23300   -1793827.3    36225.594    36773.629   -75364.758     621.2536    -69.10988   -39.629839    77.005332    88.918789    81.246547     1600.518 
   23400   -1793780.5    36664.629    35927.235   -75359.285   -766.76172    376.19297   -526.99313    77.011352    88.925741    81.252899    1598.0899 
   23500     -1793832     35951.27      36295.4   -74969.154   -416.84957     106.9345   -617.80604    77.010704    88.924993    81.252216    1604.2001 
   23600   -1793848.3    36877.285    36706.141    -74340.92    363.56121   -173.07389   -479.14379    77.004158    88.917434    81.245309     1600.517 
   23700     -1793922     37497.27    37892.936   -72934.513    1014.0255   -317.38788    295.74525    76.997432    88.909668    81.238213    1603.8508 
   23800   -1793866.6    37371.223    38651.332    -73569.42   -258.66636   -414.75438    375.16654    76.995045    88.906911    81.235694    1594.5838 
   23900   -1793863.9    37971.439    37641.907   -73763.925   -2.3507353    -859.8394   -261.21833    76.998317    88.910689    81.239146    1598.9808 
   24000     -1793814    36699.627    37356.418   -74641.761   -221.61133    -321.1628    355.76308    77.005721    88.919239    81.246958    1599.0641 
   24100   -1793814.6    36372.369    36717.024   -75332.957    362.34818   -229.27945    181.88182    77.012109    88.926615    81.253698    1603.6618 
   24200   -1793832.3    36775.876    35996.852   -75632.673    525.07053    267.71358   -158.92416    77.012546     88.92712    81.254159    1604.2393 
   24300   -1793824.8    36796.935    37569.652   -75190.446   -194.52787    368.95347     167.0378    77.006912    88.920614    81.248215    1596.9517 
   24400   -1793850.8    37662.395    38472.099   -74031.198    -207.3472    305.10746    110.06813    76.998285    88.910652    81.239113    1595.0207 
   24500   -1793870.7    38443.485     37778.64   -73866.398   -339.82567   -21.027746   -813.29088     76.99306    88.904619      81.2336    1597.2128 
   24600   -1793851.2    38198.558    37388.917   -73396.404    495.49789   -141.37967     92.81843    76.994786    88.906612    81.235421    1597.4944 
   24700     -1793789     37897.51    37636.182   -73763.252   -474.37128   -208.10606   -566.74263    77.002373    88.915373    81.243426    1594.1344 
   24800     -1793771    36723.725      37037.3   -74381.219   -20.799235   -663.31192    222.90015      77.0098    88.923948    81.251261    1595.1804 
   24900   -1793838.5    36496.965    35961.998   -75341.557   -40.600887   -187.41161    273.11185    77.011127    88.925481    81.252662    1604.5413 
   25000     -1793806    37448.226    36422.521   -74828.075   -49.054128   -668.59246   -176.03585    77.005987    88.919546    81.247238    1596.0439 
   25100     -1793822    37598.712    37379.213   -73012.432   -234.78113   -589.86821   -265.45936    76.997616     88.90988    81.238406    1592.4969 
   25200   -1793918.2    37761.561    37750.577   -74020.358   -679.01868   -458.37251   -454.02448    76.993538    88.905171    81.234104    1602.2096 
   25300   -1793868.2    38330.314    37474.972   -73345.954    169.12859   -639.33771    462.41683    76.995438    88.907365    81.236109    1597.3921 
   25400   -1793880.4    35607.183    36727.985    -74769.15   -200.78364   -528.60135    195.67408    77.003337    88.916485    81.244442    1605.9343 
   25500   -1793754.8    36455.812    37236.424   -74875.304    79.326123   -373.36773   -410.02801    77.010377    88.924615     81.25187    1594.7267 
   25600   -1793775.2     36713.35    36499.098   -74677.772   -140.24433   -449.70916    777.92333    77.011591    88.926017    81.253151    1598.5705 
   25700   -1793818.8    36975.367    36578.103   -73898.396   -152.35014   -456.69255   -561.97296    77.005936    88.919486    81.247184    1597.3923 
   25800   -1793834.6    37238.789    38697.517    -73464.06    577.41016    188.16899    421.47475     76.99828    88.910647    81.239107    1589.3308 
   25900   -1793890.4    37796.364    37679.052   -72937.148   -231.90286    266.31922   -92.292238    76.993586    88.905226    81.234155    1595.6385 
   26000   -1793843.1    38441.062    37399.011   -73339.814   -495.79645   -42.864869    160.10177    76.996009    88.908024    81.236711    1596.6467 
   26100   -1793818.2    37327.246    38112.533   -74546.431    595.94274   -110.17381   -379.59257    77.004771    88.918141    81.245955    1604.7163 
   26200   -1793762.9    36558.515    36371.169   -75178.781   -52.613928    -693.7619    115.12869     77.01524    88.930231    81.257002    1598.1653 
   26300   -1793838.8    35281.357    36249.267   -76267.395    41.593905    74.159428     397.8777     77.01958    88.935242    81.261581    1603.4939 
   26400   -1793834.2    35942.006    36555.016   -75632.905   -304.79539    254.82584    -526.7165    77.012247    88.926775    81.253844    1596.1873 
   26500     -1793856    38399.198    37350.313   -74810.121    38.684037    -227.9942   -506.05472    76.995339    88.907251    81.236004    1593.6217 
   26600   -1793854.9    39801.543    39306.292   -72685.077   -323.70393    221.86609    38.649901    76.982367    88.892272    81.222318    1591.7613 
   26700   -1793874.3    40219.867    38736.256   -73320.015    289.80565   -617.21026    383.64499    76.984677    88.894939    81.224755      1601.51 
   26800   -1793821.6    36991.302    37403.261   -74898.366    268.91154   -496.89805    326.10731    77.003127    88.916243    81.244221    1604.5799 
   26900   -1793801.5    35404.657    35569.665   -76019.577    260.41874     78.47511   -121.04092    77.023523    88.939795    81.265741    1603.5786 
   27000   -1793847.1    34748.373    33902.118   -77490.016    126.25778   -498.82288   -84.825149    77.029006    88.946126    81.271525     1602.269 
   27100   -1793842.9     35694.32    36175.226   -75759.435    -86.66962    41.028627    434.57668    77.013196     88.92787    81.254844    1588.4664 
   27200   -1793929.7    38995.019    39609.876   -72973.864    901.74119    588.74827    322.42928    76.987672    88.898397    81.227915    1600.5635 
   27300   -1793881.5    40905.105     39563.58    -71343.42   -200.36802   -280.70065    589.31191    76.974949    88.883706    81.214492     1598.895 
   27400   -1793892.1     38125.35    39073.727   -73159.179    456.04094    753.58662    221.71638    76.986073    88.896551    81.226228    1603.0818 
   27500   -1793841.7    36084.913    36195.329   -74715.014    1369.8007   -5.5721919    957.90161    77.010143    88.924345    81.251624    1598.2008 
   27600   -1793827.6     33968.18    34480.537   -76263.251    516.04632    170.34116    962.96078    77.027999    88.944963    81.270463    1598.3593 
   27700   -1793840.3    35129.824    33396.379   -75989.499     230.0867    517.25326    577.62438    77.026546    88.943285     81.26893    1602.3102 
   27800   -1793870.3    36945.981    35675.143   -74137.554    201.60005   -281.44116    307.42927    77.007429     88.92121     81.24876    1606.5635 
   27900   -1793858.5    38975.085    38217.211   -72357.433    903.45121    103.52438    1023.5125    76.987143    88.897786    81.227357     1603.043 
   28000   -1793928.2    39186.065    39101.566   -73127.307    895.54162   -2.4793061    692.28731    76.981379    88.891131    81.221275    1603.8385 
   28100   -1793892.3    37979.161    37162.026   -73981.085    109.42534    177.83207    683.59044     76.99122    88.902495    81.231659    1587.4949 
   28200   -1793898.1    36637.054    36000.684   -74977.755     807.1609    90.657942    518.57497    77.006688    88.920355    81.247978    1591.8226 
   28300     -1793809    35415.027    35315.685   -75070.551    255.98071   -6.0935646     852.5224    77.016078    88.931198    81.257886    1587.9819 
   28400   -1793803.5    36458.631    34395.674   -74998.846    9.4423756     55.63571    337.08934      77.0147    88.929606    81.256431    1593.9942 
   28500   -1793812.7    37348.355    37538.345   -73563.607    -135.9547    -1240.688   -107.59659    77.004768    88.918138    81.245952    1602.6648 
   28600   -1793829.8    38173.683    38397.931     -73423.7     385.6747    457.57415    484.66756    76.997424    88.909657    81.238204    1606.0938 
   28700   -1793889.4    37665.142    36371.771   -73993.691   -481.48089   -233.88372    213.68497     76.99801    88.910335    81.238823    1603.3755 
   28800   -1793869.5    36915.834    37446.512    -74061.11    50.253309   -921.65593    861.57821    77.003859    88.917089    81.244994    1592.3602 
   28900   -1793905.3    35447.808     35923.91   -75337.985    706.65444    741.48615    346.94466    77.008973    88.922993    81.250389    1599.6827 
   29000   -1793889.2    36464.205    35585.363    -74965.14   -308.92748   -209.06381    522.87911    77.008085    88.921968    81.249452    1603.6647 
   29100   -1793851.1    37755.282    37251.669   -74270.276   -59.202388   -1017.4167    530.09654    77.003663    88.916863    81.244787    1602.1769 
   29200   -1793886.2    37930.376    37673.339   -74296.947    360.52779   -239.15325    522.57791      77.0007    88.913441    81.241661    1608.2697 
   29300   -1793814.1    37761.547    37787.049   -74106.243    441.31812    -622.1493    382.79192    77.001048    88.913842    81.242027    1595.3788 
   29400   -1793902.3    36900.137    36223.133   -74608.047    152.60093   -610.82499    318.37338    77.002757    88.915815     81.24383    1592.7903 
   29500   -1793925.7    36803.221    36114.033   -75057.099    131.38171   -448.53474    1.4712989    77.002278    88.915263    81.243325    1595.5305 
   29600   -1793895.8    37271.706    37883.392   -73323.101   -328.20393   -431.41522     446.0895    76.998237    88.910597    81.239062     1603.018 
   29700   -1793814.8    38438.543    37357.545   -73765.854    452.73683   -189.51064    146.53865    76.998201    88.910556    81.239024    1597.8065 
   29800   -1793815.4    37222.505    37347.526   -74412.819    341.55011   -242.82691    43.837374    77.003732    88.916942    81.244859    1598.5346 
   29900   -1793810.8    36680.077    36889.446    -75114.09    73.851106    198.99585    517.15493    77.008486    88.922431    81.249875    1595.2687 
   30000   -1793881.8    36992.157    36699.762   -75751.573    37.075277    371.11482    11.064859    77.007606    88.921415    81.248947    1593.9934 
   30100   -1793892.9    36834.913    36919.187   -75124.756   -251.02165    667.75096   -101.34036    76.999478    88.912029    81.240371    1589.8033 
   30200   -1793866.3    38324.307    38165.322   -73118.763    -172.1923    116.26302   -94.032738    76.991445    88.902754    81.231896    1596.7447 
   30300   -1793813.9    37771.911    38032.508   -73026.196    331.76171   -743.92639    196.49906    76.992857    88.904384    81.233386    1597.7802 
   30400   -1793897.1    37568.746    36464.685   -74071.237    480.05412   -779.82985   -113.71552    77.002245    88.915225    81.243291    1608.6097 
   30500   -1793864.5     35600.11    36450.384   -74729.193   -290.24759    95.670749    357.94831    77.013124    88.927787    81.254769    1601.3885 
   30600   -1793859.7    36411.686    35584.801   -75200.822   -511.98193    303.99496   -444.87723    77.016527    88.931716    81.258359    1597.2713 
   30700   -1793867.4    36817.042    36424.548   -73909.553    789.47223   -50.767217    1242.9582    77.008906    88.922916    81.250318    1597.2779 
   30800   -1793866.4    37697.814    37782.685   -73314.032   -110.28133    170.20749    70.151243     76.99701     88.90918    81.237767    1603.7307 
   30900   -1793782.5        38297    39258.596   -72873.389   -225.84969   -107.66965    139.48237    76.992131    88.903546    81.232619    1600.2821 
   31000   -1793841.8    37969.404    39204.342   -73569.168    837.48415    680.61911    952.44729    76.998836    88.911289    81.239694     1605.109 
   31100   -1793860.8    36270.509     36731.45   -75172.643    322.18122     45.62187    765.44303     77.01048    88.924734    81.251979    1594.0195 
   31200   -1793864.5    35454.308    36072.322   -75328.016   -576.24841   -108.32309   -144.90601    77.015021    88.929977     81.25677    1593.5418 
   31300   -1793865.5    36169.667    36720.436   -73583.994    494.00601    96.504857   -99.888027    77.008251    88.922159    81.249627    1599.5441 
   31400   -1793853.1    37644.324    36953.106   -73310.231    191.05253   -319.45336   -207.07924    76.997841    88.910139    81.238644    1602.9522 
   31500   -1793877.2    37845.412    38138.405   -73155.317   -259.63064    312.25963    274.08715     76.99312    88.904688    81.233663    1606.9788 
   31600   -1793802.5    37874.338    38192.895   -73119.746   -23.953711     182.1956   -96.089965    76.997655    88.909925    81.238448    1593.0247 
   31700   -1793894.9    36349.151    35908.755   -74649.426    136.21957   -33.399518   -571.33141    77.006213    88.919807    81.247477    1588.7906 
   31800     -1793919    35798.662    35393.143   -75051.548   -436.08701   -407.81727    100.56058     77.00872    88.922702    81.250122    1589.8674 
   31900   -1793820.2    36629.088    37893.422       -74040    878.94868    174.11751    904.39008    77.002374    88.915373    81.243426    1587.7827 
   32000   -1793861.4    37637.366    38071.603   -73637.253    72.861179    209.48441    87.304091    76.994921    88.906768    81.235563    1601.4642 
   32100   -1793817.6    38440.952    37052.853   -73116.943    345.07808   -561.07095    577.82426    76.992989    88.904536    81.233524    1599.5376 
   32200   -1793863.9     37652.81    38071.321   -73523.565     105.5356   -42.658561    308.26392    76.997517    88.909765    81.238302     1603.763 
   32300   -1793878.9    34852.292    36798.095   -74282.497    586.12794    374.39671     660.2585     77.00541     88.91888     81.24663     1594.236 
   32400     -1793915    35747.747    35230.748   -75106.757   -701.97319    50.058189    121.12062     77.00984    88.923994    81.251303    1593.4807 
   32500   -1793845.6    36841.153    37253.902   -74635.786    379.42798   -34.725607    722.47933    77.005684    88.919196    81.246919    1592.7042 
   32600   -1793818.1    37176.611    38642.288   -73388.576    670.89622    389.64799    916.23749    76.998137    88.910482    81.238957    1595.6786 
   32700   -1793838.7    38373.812    37164.874   -73061.841   -727.49278    413.04389    372.01136    76.995544    88.907487     81.23622    1599.7135 
   32800   -1793804.8    38077.746    37053.075   -73565.971    269.04729    290.90097    692.32939     77.00057    88.913291    81.241523    1594.9088 
   32900   -1793869.8     36467.92    36713.587   -74766.518    458.82472    249.26989   -153.44148    77.006967    88.920677    81.248272    1599.2231 
   33000   -1793884.6    36626.154    36218.207   -74749.375   -15.887525    433.84016    274.62301    77.008855    88.922858    81.250265    1592.6664 
   33100   -1793934.5    36348.657    36689.189   -74690.252   -493.98104    410.06157    47.944089    77.002744    88.915801    81.243817    1598.7845 
   33200   -1793873.8     38966.46    36948.679   -73005.383    530.94187   -429.33012    636.03151    76.994735    88.906553    81.235367    1605.1088 
   33300   -1793858.2    37971.122    38349.816   -73234.683    643.40971    245.19002    513.12171    76.993918     88.90561    81.234505    1606.9866 
   33400   -1793810.6    37068.001    37007.833   -73965.212   -337.83622    30.205721   -587.09908    77.001349    88.914191    81.242346    1597.2893 
   33500   -1793897.1    36970.446     35981.91   -74380.379    231.05948   -535.07495   -127.62617    77.009693    88.923825    81.251148    1600.8626 
   33600   -1793927.8    35390.125    35032.505   -74640.312    252.94228    180.41585    651.89743    77.012534    88.927105    81.254146    1597.3042 
   33700   -1793891.8    36938.997    35830.522    -73773.34   -1.3874014    869.44054    51.068749    77.005573    88.919068    81.246802    1590.7979 
   33800   -1793880.7    38021.283    38451.039   -72928.662    -448.6025   -125.50938    114.72391    76.994074    88.905789    81.234669    1602.2314 
   33900     -1793865    38417.128    38355.178   -72631.769    271.94022   -114.45064    367.41715    76.989958    88.901037    81.230327    1607.7881 
   34000   -1793859.3    38194.685    36591.518   -73716.158     37.41481   -731.39697    114.37134    76.996558    88.908658    81.237291    1606.2201 
   34100   -1793820.1    36109.661    35978.432    -73698.43   -17.703813   -502.06735   -328.15109    77.008903    88.922913    81.250316    1591.5862 
   34200   -1793863.1     35947.77    35474.199   -75319.281   -304.18438    104.28202   -543.05626    77.015452    88.930475    81.257225    1590.7159 
   34300   -1793822.9    36602.516    36500.015   -74860.269   -417.40751   -107.00706   -610.89687    77.009132    88.923177    81.250556    1591.9649 
   34400   -1793814.7    38523.727     37182.08   -73457.212   -5.3194518   -276.83773    110.58872    76.996796    88.908933    81.237542    1605.8036 
   34500   -1793846.4    38157.605    38394.879   -73059.124   -67.916672     92.70069    -165.7613     76.99165    88.902991    81.232112    1607.4259 
   34600   -1793899.8    37864.905    37342.636   -73869.617    542.37993    203.60531   -59.429431    76.997906    88.910215    81.238713    1604.1784 
   34700   -1793849.9     36399.04    36062.429   -75070.754    579.62001   -937.91974    314.44307    77.007882    88.921734    81.249238    1592.9656 
   34800   -1793822.8    36275.342    37011.224   -75223.885    245.61579   -351.80053    516.62665    77.011466    88.925872    81.253019    1592.4862 
   34900   -1793827.3    37629.436    36011.021   -75675.119    12.185711   -608.74251    383.19098    77.007235    88.920987    81.248555    1606.3774 
   35000   -1793799.7    37913.877    37285.253   -73154.897     745.6098   -19.865506    501.06476    77.000182    88.912843    81.241114    1605.8463 
   35100   -1793825.8     38482.21    37407.967   -73223.212    581.61439   -1016.5213    47.738522    76.997368    88.909593    81.238145    1603.8804 
   35200   -1793828.2    37349.331    37315.177    -72996.08    578.69889    10.472431    53.746847    77.000045    88.912685     81.24097    1596.3925 
   35300     -1793834    37026.581     35244.28   -74469.903   -44.822149   -1024.6915    -129.9743    77.005321    88.918776    81.246536    1592.5955 
   35400     -1793863    37320.831     36508.38   -74875.475    277.94579   -123.48394   -48.370229    77.006997    88.920712    81.248304    1596.5747 
   35500   -1793849.4    36525.663    37726.774   -73914.622    95.528672   -624.95386    133.81784    77.004981    88.918384    81.246177    1607.7731 
   35600   -1793782.3    37787.172     36720.23   -73430.271   -100.97408   -716.89405   -169.14369    77.003474    88.916644    81.244587    1605.3071 
   35700   -1793795.7    37531.306    37041.517   -73121.991   -10.535871   -318.32589    -193.2648    77.005377    88.918841    81.246595    1599.3429 
   35800   -1793838.5    36276.736    35761.374   -74317.286    30.135934    322.67353   -33.065592    77.008644    88.922614    81.250042    1596.7086 
   35900   -1793839.2    36884.182    36200.286   -74650.549    105.76093    204.20915   -664.14964     77.00708    88.920808    81.248392     1595.552 
   36000   -1793879.3    35957.139    36371.823   -73773.731   -175.80481     236.9957    60.126192    77.000965    88.913747     81.24194    1603.8941 
   36100   -1793909.5    37690.528    38285.429   -73147.636   -231.45687   -70.520989   -263.52293    76.993949    88.905645    81.234538    1611.2721 
   36200   -1793840.6     37897.39    37763.894   -73421.244   -190.35898    208.00552   -246.09909    76.994737    88.906556    81.235369    1606.4695 
   36300     -1793856    37686.471    36517.018   -74158.152   -269.31645   -504.37172   -575.89811    77.003079    88.916188    81.244171    1609.1009 
   36400   -1793843.6    36053.458    36193.666   -74331.691   -663.71553   -334.28316    286.92771    77.011823    88.926284    81.253396    1599.7351 
   36500   -1793843.6    35045.035    35722.741    -74728.06    147.58972    -26.91862    11.308702    77.012913    88.927543    81.254546    1591.9157 
   36600   -1793865.8    36090.631    37016.975   -73743.161     182.5259    98.251284   -411.72475    77.003432    88.916596    81.244543     1596.159 
   36700   -1793896.4    38724.321    38291.274   -73155.247   -398.65625   -283.02373    -385.4786    76.991168    88.902434    81.231604    1613.3991 
   36800   -1793820.1    39262.212    39571.538   -72617.208    -587.7593    597.81494   -416.03039    76.989398     88.90039    81.229736     1608.287 
   36900   -1793840.3    37209.969    38177.449   -73399.862    71.662205   -589.23684   -245.88438    77.001568    88.914443    81.242577    1604.9695 
   37000   -1793843.2    35909.627    35098.472   -76906.068     -32.6634   -16.851019    -26.03829    77.017853    88.933248    81.259759    1600.7676 
   37100   -1793882.5    34461.891    35184.784   -76932.181   -462.15914    357.45612    329.65342    77.022222    88.938292    81.264368    1604.7023 
   37200   -1793840.7     36259.99    36834.444   -74768.913   -718.60984    603.56226   -684.53233    77.010672    88.924955    81.252181    1599.4096 
   37300   -1793732.4    38523.834    39150.348   -73153.451    -147.5907    87.848798   -303.46542    76.993348    88.904952    81.233904    1590.5741 
   37400   -1793849.3    39569.121    38880.243   -72041.683   -770.18796    189.58551    291.50143    76.985734    88.896159     81.22587    1610.1508 
   37500   -1793826.8    38515.326    37318.765   -73466.753   -355.46122   -60.327521   -905.31799    76.995499    88.907435    81.236173    1598.3798 
   37600   -1793844.1    35688.723    36710.227   -75659.963   -457.21001    618.52239   -648.54909    77.012327    88.926867    81.253928    1591.6935 
   37700   -1793834.4    34961.498    35229.351   -75973.892    590.11773    67.655419    370.39972    77.019623    88.935291    81.261625    1592.4313 
   37800   -1793808.4    36287.307    36066.794   -74419.224    -727.7551   -411.06092   -674.36148    77.012434    88.926991    81.254041     1596.903 
   37900   -1793877.4    37981.849    36753.775   -74632.391   -211.13207   -494.62121   -489.79396    76.998739    88.911176    81.239591    1609.4216 
   38000   -1793852.4    39280.795    38573.979   -72960.091    836.20118   -390.19497    488.97058    76.989112     88.90006    81.229434    1603.6774 
   38100   -1793917.9    38596.614    37640.985   -73349.425    122.95005    300.05036    179.88602    76.992356    88.903806    81.232857    1606.7505 
   38200   -1793819.7    37381.277    37667.834   -75509.797   -616.72553    159.98012   -458.67596    77.005015    88.918423    81.246213    1588.6926 
   38300   -1793910.2    36210.119    35344.012   -75783.163    297.23576   -366.59603    417.96867    77.014225    88.929058    81.255931    1602.2941 
   38400   -1793849.1    36324.014     36170.97   -75642.925    504.47908   -396.31272    902.03329    77.012323    88.926862    81.253923    1608.5459 
   38500     -1793794     37643.85    37987.432   -74254.717    544.84917    138.07821   -257.33693     77.00399    88.917239    81.245131     1604.566 
   38600   -1793840.9    38118.304    38451.082   -74143.907    371.19475    129.89684     720.4836    76.997119    88.909306    81.237882    1601.9334 
   38700   -1793824.8    38609.782    37819.411    -74067.29    733.69879   -604.95321    402.17701    76.995058    88.906926    81.235708    1591.8919 
   38800   -1793860.8    37973.699    37155.105   -74048.492   -269.98899   -272.86833   -179.62533    76.999301    88.911826    81.240185     1596.013 
   38900   -1793866.8    36037.612    37461.252   -74916.459   -93.657338    267.08346    884.68186    77.004929    88.918324    81.246123     1599.665 
   39000     -1793871    36272.485    36520.423   -74988.488    341.95465   -10.450533    -850.2729    77.008095     88.92198    81.249463    1605.3554 
   39100   -1793783.4     36749.24     36303.15   -73838.498    203.40865   -271.00636    338.26616    77.008581    88.922541    81.249975    1603.9805 
   39200   -1793738.8    36891.604    37951.755   -74280.534   -103.59182    978.74147   -302.17701    77.009352    88.923431    81.250789    1609.4544 
   39300     -1793801    36452.864    37333.699   -74253.614    -8.079772    65.295767   -624.22819      77.0096    88.923717     81.25105    1607.2703 
   39400   -1793813.4    37609.003    36927.253   -73469.348    100.87365    417.01434    5.1858756    77.007098    88.920829    81.248411    1599.3156 
   39500   -1793818.5    37648.325    37183.936   -73296.256    477.94544   -412.30836    237.02841    77.003384    88.916539    81.244492     1593.617 
   39600     -1793869     36474.46    37473.588    -74238.89   -629.81296   -136.61598   -66.127031    77.000028    88.912665    81.240952    1597.4323 
   39700   -1793888.3    38829.201    36920.592   -73495.837   -76.390284   -357.19989   -449.79965    76.997515    88.909763      81.2383    1600.1681 
   39800   -1793855.1    37988.525    37441.762   -73349.007    584.41657   -85.988079   -475.55541    76.999349    88.911881    81.240235    1605.9804 
   39900   -1793843.6    36414.787    36886.465   -73574.632   -236.35603    156.86368    265.22484    77.004979    88.918382    81.246175    1610.8036 
   40000     -1793833    35846.634    36787.559   -73909.959   -184.75531    661.45543   -950.29772    77.010298    88.924524    81.251787    1604.2281 
   40100   -1793843.1    36658.514     36718.92    -74101.38    -87.86446   -456.66973    546.22824    77.010011    88.924192    81.251484    1593.0264 
   40200   -1793865.8    36813.204    37776.524   -73875.403   -122.18057    401.36448     162.7916    77.002213    88.915188    81.243257    1595.0339 
   40300   -1793815.3    37100.277    38828.223   -72720.689    92.832757    290.45254   -444.93597    76.993443    88.905061    81.234004    1592.1667 
   40400   -1793850.5    37643.219    37701.828   -72860.056    83.723758    226.56332    -208.3437    76.992287    88.903726    81.232784     1602.074 
   40500   -1793896.9    37902.328    37445.031   -72664.204   -51.169096   -278.20647    191.20226    76.998637    88.911059    81.239484    1613.6765 
   40600   -1793817.1    35318.912    37473.919   -74037.752   -327.19693    281.78576   -132.38176    77.010561    88.924827    81.252065    1612.5703 
   40700   -1793747.7    35518.247     35897.95    -75074.04   -764.52953    642.98099    294.55597    77.019704    88.935384    81.261711    1602.7519 
   40800   -1793823.2    35378.107    35521.843   -75887.599    409.48292   -19.127503    -372.7138    77.018311    88.933777    81.260242     1599.046 
   40900   -1793831.2    36161.755    37896.294   -73527.095    -663.1231    594.76299    286.00095    77.004346     88.91765    81.245507    1595.5575 
   41000     -1793852    38128.615    38675.372   -72647.273   -1.1355183    350.30578   -333.90781    76.988771    88.899666    81.229074    1596.0017 
   41100   -1793915.3    39112.155    39326.466   -72820.579   -558.54583    338.15866    134.00779    76.984852    88.895141    81.224939     1603.637 
   41200   -1793869.8     37932.71     39182.84   -73440.327    22.050743    935.32605   -12.766372    76.995581     88.90753    81.236259    1600.3831 
   41300   -1793859.5    35822.597     36563.48   -74669.546   -631.61632    289.19284   -653.45435    77.012466    88.927027    81.254075    1606.4903 
   41400   -1793803.4    34302.099    35358.672   -75662.394   -109.25754    300.22432   -376.01722    77.022829    88.938994    81.265009    1604.1848 
   41500   -1793837.1    35842.813    35716.028   -75831.157    -298.6426    484.93285   -85.523408     77.01922    88.934826    81.261201    1607.2699 
   41600   -1793896.6     36877.21    37544.484   -74469.243   -743.29046     253.8101    -1286.476    77.003725    88.916934    81.244852    1602.6621 
   41700     -1793893    38411.688    39138.082   -73427.254   -602.20622    47.410106    95.194862    76.986409    88.896939    81.226582    1594.9984 
   41800   -1793943.7    39405.136    39970.694   -72554.051   -459.70039    96.016427   -232.28469    76.980318    88.889906    81.220156    1604.6655 
   41900   -1793826.8    37939.525    38045.719   -72860.471   -746.46707    109.78702   -448.35706    76.993052     88.90461    81.233591    1596.1819 
   42000   -1793747.2    35951.319    35990.739   -74523.546   -751.58735   -148.96583   -520.13353    77.014254    88.929092    81.255961    1594.1152 
   42100     -1793742    34907.059    33994.625   -75623.356   -281.05138    2.5697066   -985.23726    77.028767     88.94585    81.271274    1610.6694 
   42200   -1793703.4    35377.267    34084.711   -75291.242     -562.135    175.25751   -446.08786    77.026219    88.942907    81.268585    1606.4665 
   42300   -1793768.6    36178.682    37583.592   -73759.727   -872.43839    73.334034   -523.87391    77.008575    88.922534    81.249969    1603.3746 
   42400   -1793815.8    38272.736    38506.412   -72387.183   -661.10107   -253.17995   -46.355903    76.989389     88.90038    81.229727    1599.4282 
   42500   -1793856.6    39447.073    39244.941   -71361.408   -945.95393   -395.20131   -302.56083    76.982163    88.892036    81.222103    1595.6368 
   42600   -1793965.4     37634.14    37712.558   -72880.073   -307.52851     259.0239   -277.59499    76.992746    88.904256    81.233268    1605.8331 
   42700   -1793901.6     35827.69    35619.158   -75335.471   -448.47499   -232.65301    -453.3887    77.011612    88.926041    81.253173    1600.7292 
   42800   -1793798.7    34900.861    33548.871   -75064.389    213.14326   -283.61005    280.79226    77.021491    88.937448    81.263596    1601.9536 
   42900   -1793822.3    35003.943    35071.868   -74523.867    330.11882    482.06513    84.854646    77.016786    88.932016    81.258632    1607.1261 
   43000   -1793885.3     36645.33     36390.16   -73045.272   -26.466408   -374.78136   -68.804037    77.003356    88.916508    81.244463    1609.4069 
   43100   -1793832.1    38342.172    37811.799   -72096.268   -416.95061   -271.43683    737.95045     76.99095    88.902182    81.231373    1593.6192 
   43200   -1793848.4     38142.52    38484.152   -71655.248    11.643824   -748.59832     150.6183     76.98713    88.897771    81.227343    1593.0906 
   43300     -1793917    37230.037    37359.532   -72672.369    80.799745      188.835    404.15851     76.99493    88.906778    81.235573    1604.1707 
   43400   -1793859.3    35571.444    35714.506    -73582.34   -172.23672   -309.29361     376.9617    77.007797    88.921635    81.249148    1598.8962 
   43500   -1793885.8    36315.575    34535.782   -75771.258   -351.88384   -922.62364    393.30258    77.014766    88.929682    81.256501    1605.1627 
   43600     -1793794    36917.359    35652.733   -75074.905    233.53745   -212.15004     718.0906    77.011308     88.92569    81.252853    1594.8316 
   43700   -1793839.5    37802.036    37015.302   -74015.666    222.34534   -337.07697    82.028634    77.000031    88.912668    81.240955    1600.9312 
   43800   -1793847.2    38487.857     39297.26   -73106.666    185.32813   -1.9381872   -561.40832    76.990333     88.90147    81.230723    1598.0247 
   43900   -1793900.8    38405.406    38113.637   -73014.169   -345.81196   -409.38849   -59.066761    76.990602     88.90178    81.231006    1585.9066 
   44000   -1793931.3    36499.348      36953.8   -74468.583    184.07862   -468.22288    484.76171    76.998101     88.91044    81.238918    1593.9916 
   44100   -1793880.2    36870.033    37118.021   -75061.238     1058.015     -402.757    186.28812    77.005943    88.919495    81.247192    1600.3105 
   44200   -1793791.9    36560.034    35599.021    -74704.68    360.91623   -448.23275    183.88171    77.011566    88.925988    81.253125    1595.9696 
   44300   -1793874.9    35952.475    37141.826   -75096.038   -709.52051     175.5794    226.81991    77.009983     88.92416    81.251455    1609.4839 
   44400   -1793829.1    37565.835    36527.691    -74638.25    418.62139   -420.80298    32.306871    77.003667    88.916867    81.244791     1599.276 
   44500   -1793870.5    37393.069    38020.038   -73224.974   -297.30305    -101.4375    231.18795    76.996085    88.908112    81.236792    1592.2269 
   44600   -1793989.7    37750.224    37620.308   -73636.469   -232.28254   -44.384495   -331.90045    76.992501    88.903973     81.23301    1604.5565 
   44700   -1793882.1    38001.887    38048.339   -72948.905   -171.85158    417.06299   -240.59673     76.99611     88.90814    81.236817    1596.8037 
   44800   -1793846.1    36639.133    37345.594   -74657.458    453.04332    376.49297    201.53279    77.005342    88.918801    81.246558    1597.7432 
   44900   -1793847.9    36587.383    35771.748   -75070.944   -353.92214    -131.7517   -199.85652     77.01246     88.92702    81.254068    1599.9963 
   45000   -1793839.9    36519.238     36189.93   -75026.226   -583.25075   -176.80237    252.13355     77.01205    88.926546    81.253635    1601.5759 
   45100     -1793832    36994.157    36394.377   -74172.729   -610.21072    639.04941   -114.01556    77.004917     88.91831     81.24611    1603.2841 
   45200   -1793803.7    37433.224    37446.256   -73427.663   -1034.5434    675.40327   -563.18328    76.997369    88.909594    81.238146    1599.1843 
   45300   -1793877.6    38165.204    38141.217   -73266.165   -430.63658      447.814   -1011.2831    76.994915    88.906761    81.235557     1600.453 
   45400   -1793864.6    37881.042    37725.043   -73776.138     4.162363    366.75613   -487.95002    76.998488    88.910886    81.239326     1591.063 
   45500   -1793909.1     36305.25     37456.49   -74918.693   -788.35983    903.05187   -402.46836    77.004335    88.917638    81.245495    1598.2171 
   45600   -1793816.5    36503.228    37299.918    -74898.72   -22.759688    34.070416   -20.672503    77.008503    88.922451    81.249893    1600.3919 
   45700   -1793777.6    37136.896    37008.645   -74591.445    361.08229    489.37736   -232.95089    77.009497    88.923598    81.250942    1598.5482 
   45800   -1793850.9    37526.894    36874.813   -74611.102   -539.57171    227.43122   -129.19546    77.008172    88.922069    81.249544    1603.8242 
   45900   -1793825.2    36552.334    38281.109   -74849.984    -199.3813    471.30911    194.58848    77.004482    88.917807     81.24565    1592.9157 
   46000   -1793902.9    36492.815    37713.316     -73744.8   -121.40488   -269.75864   -39.404574    76.999313    88.911839    81.240197     1597.609 
   46100   -1793882.8    36939.823    37522.292   -73896.399    205.27787   -101.26967    -151.6423    76.996422    88.908501    81.237147    1594.8498 
   46200   -1793804.4    37580.363    38367.591    -73387.74   -195.68001   -161.47064   -437.39791    76.997162    88.909355    81.237927    1593.9729 
   46300   -1793823.8    36922.856     37924.49   -74692.327    -294.0412   -45.531347   -458.92227    77.002521    88.915543    81.243582    1604.5861 
   46400   -1793821.3    37026.873    36041.227   -74565.399   -722.95162   -603.94173   -364.81462    77.009419    88.923508    81.250859    1603.7527 
   46500   -1793850.1    35689.952    35467.467   -74765.759     308.4239    481.72781    192.51148    77.012476    88.927039    81.254085    1597.4224 
   46600   -1793885.5    36812.591    36319.968   -74794.393   -209.39104    668.85124    131.37375    77.006834    88.920524    81.248132    1595.8153 
   46700   -1793893.1    37237.535    38090.333   -73487.881   -613.12943   -56.703368    44.909516    76.995311    88.907218    81.235975    1599.7476 
   46800   -1793803.5    38638.312    38924.467   -71959.821    385.92271    539.27108    102.10185    76.989123    88.900072    81.229446    1591.5153 
   46900   -1793852.2    37551.554    38347.635   -72563.934   -73.745049   -31.254985    -67.78391    76.994264    88.906009     81.23487    1598.5612 
   47000     -1793812    36174.337    36539.162   -74536.109   -106.03389   -91.181073    50.392664    77.007657    88.921475    81.249001    1594.2652 
   47100   -1793853.6    35292.666    35533.799   -75125.363    641.48969     -113.229    142.05303    77.017909    88.933312    81.259818     1602.584 
   47200   -1793773.5    35112.592     35256.41   -76353.183     163.8017    6.2090996   -54.099308    77.016657    88.931866    81.258496    1601.6317 
   47300   -1793827.4    37525.529    36613.527   -74729.842   -182.84237   -498.59556   -437.55456    77.004318    88.917619    81.245478    1614.5977 
   47400   -1793859.7    38602.154     38498.21   -73375.019   -678.92904   -195.69444    75.602649    76.993142    88.904713    81.233686    1607.6091 
   47500   -1793839.6    37122.102    38869.418   -73334.615    110.97206    332.98025    140.82991    76.992555    88.904036    81.233067    1595.6217 
   47600     -1793903    37418.181        37079   -74311.571    397.34858   -55.001559    217.48949    77.001099    88.913901    81.242081     1602.208 
   47700   -1793869.2    36700.343    35919.923   -76218.386    141.75634    215.71928    -94.73428     77.01052     88.92478    81.252021    1599.3023 
   47800   -1793839.3    35954.504     36233.36   -75706.402   -177.57233    147.20834   -149.14022    77.013006     88.92765    81.254644    1604.2058 
   47900   -1793867.5    36487.772    36773.848    -74238.42   -123.84577   -124.73077   -319.02742    77.008081    88.921963    81.249448      1616.24 
   48000   -1793843.9    38312.987    37308.583   -74042.019   -551.30366   -33.824552   -516.23006    77.001135    88.913944     81.24212    1607.2851 
   48100   -1793892.1    37897.755    36933.874   -74373.568   -80.049207    134.02288   -176.01369    76.995771    88.907749    81.236459    1600.0923 
   48200   -1793897.1    37630.372     38266.54   -73058.963    184.35084    62.499791   -614.91434    76.993499    88.905126    81.234063    1600.3498 
   48300   -1793879.9    38725.502    36150.432   -73698.382   -102.61353   -1044.8925    297.90383    76.997938    88.910252    81.238747     1601.973 
   48400   -1793838.5    36713.563    36467.224   -74568.289   -641.68282   -699.97015    -143.3002    77.007207    88.920954    81.248525    1602.9493 
   48500   -1793831.1    35371.626    35693.088   -74765.689   -438.67977   -249.65655   -23.897424    77.015001    88.929954    81.256749    1608.2744 
   48600   -1793777.3    36588.389    36250.419   -75214.538     791.1632   -418.27052   -69.692161    77.015122    88.930094    81.256877     1602.009 
   48700   -1793880.4    36860.435    36521.146   -74672.503    226.17942   -379.52688    544.21936    77.006541    88.920185    81.247823    1602.6789 
   48800   -1793854.8    38131.453    38095.483   -73957.862   -440.83259   -991.21694   -33.924537    76.994569    88.906361    81.235192    1592.0481 
   48900   -1793888.8     39135.63    38634.134   -73288.496   -211.66864   -296.19042    -220.4195    76.987953    88.898721    81.228211     1596.807 
   49000   -1793904.2    38140.788     38542.51   -74144.549    420.11437    14.958139   -205.49793    76.992964    88.904508    81.233499     1606.746 
   49100   -1793809.8    36972.721    37294.192   -74409.812   -88.471226   -294.26417   -26.454105    77.007013    88.920731    81.248321    1605.3883 
   49200     -1793811    35701.342    34873.313   -75710.438   -311.13456   -25.165478   -457.63252    77.020182    88.935937    81.262216    1605.1218 
   49300   -1793830.7    35680.421    34034.611   -75713.201     209.5246   -680.80996   -291.50032    77.021047    88.936936    81.263128     1603.208 
   49400   -1793804.2    37487.993    37435.846   -74087.259   -118.65608   -811.46515   -562.55517    77.007303    88.921065    81.248627    1596.5971 
   49500   -1793819.8    39306.841    38759.835   -73398.382    -871.5304   -415.14724   -586.91233    76.990731    88.901929    81.231142    1595.7285 
   49600   -1793897.6    39402.681    39145.911   -72998.641   -437.02667   -317.30392    150.01429    76.983484    88.893561    81.223496     1600.581 
   49700   -1793912.9    39127.328    36755.732   -74645.937   -481.75373   -1130.1208   -712.11072     76.99046    88.901616    81.230856    1591.3903 
   49800   -1793942.7    36311.586    37029.179   -75306.291    132.48151   -146.34778    256.61493    77.003603    88.916793    81.244723    1588.7923 
   49900   -1793890.3    36724.779    35462.026   -75190.701   -96.331838   -256.13882   -273.42504    77.011575    88.925998    81.253134       1598.8 
   50000   -1793826.5    36266.943    36488.221   -74767.233     -688.659    257.27126    -204.7775     77.01027    88.924491    81.251757    1598.0364 
[...]
   87800   -1793859.9    35693.182    36890.866   -74449.302    698.07635     707.1231    379.55179     77.00853    88.922483    81.249922    1605.3387 
   87900   -1793867.4    36498.056    36135.822   -75112.545   -197.78366    633.47228   -74.067279     77.00853    88.922483    81.249922    1587.2174 
   88000   -1793813.8    36466.344    37609.475    -74548.34    -6.982922    529.75609      254.976     77.00853    88.922483    81.249922    1600.9445 
   88100   -1793791.7    36754.621    37262.327   -74248.858   -348.48278   -106.24491   -382.31075     77.00853    88.922483    81.249922    1598.5286 
   88200   -1793872.3    35832.854    37102.275   -74487.829   -389.72501    218.58912   -60.551624     77.00853    88.922483    81.249922    1596.2069 
   88300   -1793899.8    36665.419    35863.343   -75180.328    44.193159   -121.51457   -349.49944     77.00853    88.922483    81.249922    1596.6851 
   88400   -1793840.3    36616.736    36582.331   -74663.432   -340.77256    155.48456   -55.246193     77.00853    88.922483    81.249922    1603.5585 
   88500   -1793864.1    36248.295    36398.279   -75743.259    -612.6347   -92.558519   -123.68883     77.00853    88.922483    81.249922    1593.4182 
   88600   -1793890.5    36330.511    36643.632   -75540.441    -149.1537    549.70023   -214.06361     77.00853    88.922483    81.249922    1592.5237 
   88700   -1793843.5    36569.117    36102.689    -75151.23   -653.33573    -415.9727   -341.44816     77.00853    88.922483    81.249922    1603.5326 
   88800   -1793845.9    36366.553    36842.065   -74213.448   -215.79597    435.05838    223.94416     77.00853    88.922483    81.249922    1593.0424 
   88900   -1793887.6    35701.891    36630.204   -75644.675   -666.23917   -195.13384   -218.63601     77.00853    88.922483    81.249922    1606.3832 
   89000   -1793877.4    36020.718    36744.722   -75529.572   -734.34354   -148.22765   -421.33318     77.00853    88.922483    81.249922    1599.7561 
   89100   -1793850.2    36263.891    36592.915   -74810.727    -722.4409   -207.46482   -321.68262     77.00853    88.922483    81.249922     1600.107 
   89200   -1793874.8    36926.942    34925.376   -74493.697   -633.83941   -290.55284   -619.72138     77.00853    88.922483    81.249922    1598.0021 
   89300   -1793827.1    36263.848    36201.569   -74233.089    -286.2724    33.274905    201.02023     77.00853    88.922483    81.249922    1602.9237 
   89400   -1793811.6    36539.014    36162.301   -74449.715   -107.31763    -516.7014    336.41791     77.00853    88.922483    81.249922    1610.6246 
   89500   -1793823.2    36515.756    36158.457   -73770.901      391.808   -74.922037    226.08735     77.00853    88.922483    81.249922    1606.1679 
   89600   -1793851.5    36792.766    36294.147   -73992.519    6.2562684   -316.67111     349.9001     77.00853    88.922483    81.249922    1602.1432 
   89700   -1793813.9    36075.887    36891.354   -74185.818   -159.28242    387.88674    301.89798     77.00853    88.922483    81.249922    1605.3246 
   89800   -1793830.1    36147.419    37252.104   -74437.956   -110.82109   -408.73602    -258.4078     77.00853    88.922483    81.249922    1610.2867 
   89900   -1793825.7     37024.39    36274.159   -74257.127    553.64436   -212.85592   -250.99981     77.00853    88.922483    81.249922    1605.3725 
   90000   -1793868.6    34770.296    37232.672   -75440.775    659.68183   -115.24385    314.25701     77.00853    88.922483    81.249922    1588.9117 
   90100   -1793797.9    36220.332     36213.09   -74660.855    18.169834   -184.55502    287.59092     77.00853    88.922483    81.249922    1598.9276 
   90200   -1793797.5    36558.815    36448.015   -74904.777    51.348022    115.30157    419.64068     77.00853    88.922483    81.249922    1601.9924 
   90300   -1793813.4    36020.345     37090.17   -74299.375   -494.26088    275.39099    172.43579     77.00853    88.922483    81.249922    1604.5631 
   90400   -1793857.3    35521.737    35983.291   -74700.024   -796.91304    537.21181    377.34625     77.00853    88.922483    81.249922    1600.5746 
   90500   -1793895.8    36022.781    36196.631   -74818.293    252.41517   -339.71715     163.2035     77.00853    88.922483    81.249922    1597.1294 
   90600   -1793876.6    35944.368    36733.528   -74518.079   -97.680374    2.3542737    275.77058     77.00853    88.922483    81.249922    1599.7273 
   90700   -1793854.7    35728.318    37509.261   -74239.734    237.22268   -39.862673    613.12786     77.00853    88.922483    81.249922    1598.7479 
   90800   -1793869.6    35657.755    36585.345   -74580.691    414.64214     86.88334    763.46392     77.00853    88.922483    81.249922    1595.0539 
   90900   -1793695.4    37575.538    37525.886   -74020.642    546.32066    763.21658    646.47703     77.00853    88.922483    81.249922    1605.1917 
   91000   -1793813.3     36094.89    37259.329   -73612.927   -566.41242    255.73093   -48.751268     77.00853    88.922483    81.249922     1604.729 
   91100   -1793881.8    35792.872    36615.164   -74987.393   -92.231464   -155.73556    183.34144     77.00853    88.922483    81.249922    1596.8409 
   91200   -1793868.1    35878.509    36385.528    -74896.56   -191.20725   -311.31703   -28.154339     77.00853    88.922483    81.249922    1606.2649 
   91300   -1793814.3    37204.437     36292.96   -74398.264   -458.59956   -2.5761026   -23.355734     77.00853    88.922483    81.249922     1604.755 
   91400   -1793784.6    36377.947    36582.947   -74622.055   -106.39102   -218.09863   -302.91786     77.00853    88.922483    81.249922    1602.1958 
   91500   -1793888.4    35789.548    36412.099   -74930.527   -150.15445    730.41389   -236.17263     77.00853    88.922483    81.249922    1599.3885 
   91600   -1793842.4    37461.746    36604.855   -74681.645    380.66552   -383.34256    117.15409     77.00853    88.922483    81.249922    1604.9078 
   91700   -1793864.2    36507.834    36578.682    -75383.06   -302.82885    866.23126   -717.71315     77.00853    88.922483    81.249922    1611.5493 
   91800   -1793848.9    36055.974    36520.269   -75283.515    158.38136    964.32005   -47.168438     77.00853    88.922483    81.249922    1590.5045 
   91900   -1793850.2    36393.473    36949.754   -76108.302   -151.39826    1027.6962   -169.64838     77.00853    88.922483    81.249922     1602.716 
   92000   -1793812.9    36617.339    36047.287   -75454.387    446.09801    193.77709    419.48743     77.00853    88.922483    81.249922    1596.7068 
   92100   -1793898.7    36128.018    36486.678   -75102.884   -419.53329    298.08848   -321.79037     77.00853    88.922483    81.249922    1605.2611 
   92200   -1793867.6    35364.421    36505.423   -75064.781   -403.87057    501.24799   -862.40226     77.00853    88.922483    81.249922    1602.4535 
   92300   -1793923.2    36961.287     36099.55   -75576.849   -946.65544   -556.86159   -116.49904     77.00853    88.922483    81.249922    1608.5823 
   92400     -1793847    36522.401    36624.202   -75330.678    11.558745   -541.29666   -533.47926     77.00853    88.922483    81.249922    1589.2922 
   92500   -1793801.9    36678.348    36382.603   -75164.541     198.6973   -211.30797    1.1037677     77.00853    88.922483    81.249922    1593.3055 
   92600     -1793896    36175.431    36018.995   -75833.188   -248.48261    230.83507    293.00385     77.00853    88.922483    81.249922    1596.6433 
   92700     -1793841    37406.814    36070.171    -75422.24     150.1193   -498.60762   -209.45891     77.00853    88.922483    81.249922    1593.1066 
   92800   -1793835.8        36027    36803.942   -75361.976    413.37108    840.94448   -602.41643     77.00853    88.922483    81.249922    1597.6244 
   92900   -1793884.5    36200.598    36308.688   -74809.756   -278.06569       231.21   -113.57623     77.00853    88.922483    81.249922    1596.4083 
   93000   -1793827.7    36728.022     36089.64   -75270.412   -453.70427   -218.97487   -381.27398     77.00853    88.922483    81.249922    1593.2696 
   93100   -1793842.7    36447.383    35598.382   -74790.463    392.75904   -104.94225    122.31202     77.00853    88.922483    81.249922    1591.2176 
   93200   -1793896.7    34967.754    37662.494    -75151.41   -99.850929    397.31377   -148.49211     77.00853    88.922483    81.249922    1598.7696 
   93300   -1793918.4    36000.597    35888.616   -75340.426   -337.85526    178.07184    215.56201     77.00853    88.922483    81.249922    1594.4691 
   93400     -1793852    36308.324    35932.284   -74387.937    820.93197    549.73553    607.93846     77.00853    88.922483    81.249922     1618.441 
   93500   -1793876.5    35859.343     36171.11   -74627.169    528.93684    388.57076     62.48625     77.00853    88.922483    81.249922    1592.1706 
   93600   -1793860.7    35940.878    37185.509   -73916.362   -336.72875     828.2391    297.20355     77.00853    88.922483    81.249922    1608.7083 
   93700   -1793909.6    36028.174    36431.679   -74840.797    -204.5718    787.38539    207.13123     77.00853    88.922483    81.249922    1601.2774 
   93800   -1793802.9    36780.026    36441.158   -74024.581    890.85654    561.22288    325.30964     77.00853    88.922483    81.249922    1602.3033 
   93900   -1793804.5    37038.083    37121.445   -74139.832   -360.60594   -80.003562   -301.15946     77.00853    88.922483    81.249922    1604.8825 
   94000   -1793863.8    36524.429    37560.521   -74046.552   -92.545048    47.296639   -652.13814     77.00853    88.922483    81.249922    1595.2573 
   94100   -1793789.8    35224.167    36326.132   -74310.362    -660.2168    182.98961   -106.01945     77.00853    88.922483    81.249922    1598.7315 
   94200   -1793866.6    35605.076    35776.579    -74325.75   -635.99944   -462.74441   -250.50813     77.00853    88.922483    81.249922    1599.4767 
   94300   -1793830.1    35440.146    36677.924   -74871.102    314.25483    560.66275    273.25767     77.00853    88.922483    81.249922    1595.3104 
   94400   -1793894.3    35886.386    36362.636   -74233.527    52.415973    -228.7437   -30.808124     77.00853    88.922483    81.249922    1597.9113 
   94500   -1793828.2    36148.423    35921.301   -74268.765   -528.76359    549.72174    9.2313873     77.00853    88.922483    81.249922    1595.4326 
   94600   -1793895.6    35467.256    36627.285   -74631.821   -640.93511    228.66907    206.14554     77.00853    88.922483    81.249922    1600.1592 
   94700   -1793818.3    36455.979    36100.093    -74022.76   -382.64488   -379.82797    -444.2531     77.00853    88.922483    81.249922    1598.4521 
   94800   -1793829.2    36685.618    36388.368   -74565.132    629.22424   -313.57138    312.59337     77.00853    88.922483    81.249922    1595.1129 
   94900     -1793826     37606.25     36012.94   -74597.678     299.7002   -468.11868   -149.46188     77.00853    88.922483    81.249922    1596.5727 
   95000   -1793792.5    36834.009    37098.918   -74003.529   -471.44082    275.60685   -402.06036     77.00853    88.922483    81.249922    1609.0928 
   95100   -1793827.2    36807.654    35807.087   -74430.532    1082.9538   -805.13553    888.27514     77.00853    88.922483    81.249922    1602.6241 
   95200   -1793842.8    36274.538    36856.574   -74463.279    -289.4147    327.22068    438.07635     77.00853    88.922483    81.249922    1601.3322 
   95300   -1793851.7    36183.998    36240.545   -74086.395   -916.13005   -168.80323   -334.95303     77.00853    88.922483    81.249922     1598.602 
   95400   -1793807.6    36155.986    36697.024   -74366.736    -694.8973   -36.050127   -368.23734     77.00853    88.922483    81.249922    1605.6461 
   95500   -1793836.8    36190.171    36917.513   -74518.279    70.648923    446.66516   -689.46986     77.00853    88.922483    81.249922    1599.3667 
   95600   -1793898.7    36624.202    36482.348   -74590.554   -79.450626   -497.80774   -434.27785     77.00853    88.922483    81.249922    1597.8588 
   95700   -1793882.8    36212.363    37605.182   -75487.603   -564.04146    672.56376   -1.8921502     77.00853    88.922483    81.249922    1606.6219 
   95800   -1793891.3     35664.84    35927.638   -76086.905    277.36665   -166.12675   -367.03772     77.00853    88.922483    81.249922    1604.1652 
   95900   -1793847.6    35669.943    36641.138   -74446.167    419.93858   -320.16487    486.02697     77.00853    88.922483    81.249922    1599.1289 
   96000   -1793860.7    36460.453    36239.182   -74940.981    13.673749    275.77811    129.90549     77.00853    88.922483    81.249922    1609.5917 
   96100   -1793931.3    36309.777    35537.796    -75985.21    44.311273   -587.17667    477.31055     77.00853    88.922483    81.249922    1606.7404 
   96200   -1793849.6    36209.862    36851.223   -74747.254     106.0851   -7.6541577     311.8756     77.00853    88.922483    81.249922    1594.3887 
   96300   -1793811.9    36943.284    36675.597   -74580.743    -11.38338   -525.25097    694.70253     77.00853    88.922483    81.249922    1599.6606 
   96400   -1793865.2    35452.448    36474.778    -74624.31   -68.946474     508.7457    459.66947     77.00853    88.922483    81.249922    1602.1257 
   96500   -1793849.6    36168.546    36047.285   -74247.575   -292.30051   -430.20158    312.45229     77.00853    88.922483    81.249922    1592.4691 
   96600     -1793873     35927.41    36506.766   -74705.895   -145.49999    -303.8496    428.76335     77.00853    88.922483    81.249922    1601.9649 
   96700     -1793885    35855.277    36758.237   -74835.103    347.74511    306.76283    375.86589     77.00853    88.922483    81.249922       1606.9 
   96800   -1793794.9     37109.88    36306.246   -74749.246    798.31179    16.867048    442.11376     77.00853    88.922483    81.249922    1597.8823 
   96900   -1793828.8     36481.54    35273.951   -75087.127   -44.182566   -167.78013    3.7073153     77.00853    88.922483    81.249922    1603.5208 
   97000   -1793831.9    36718.265    37837.918   -74540.393    470.23289   -155.59313   -58.426608     77.00853    88.922483    81.249922    1603.8142 
   97100   -1793811.1    36718.415     37480.12   -74164.185    -345.2007    50.571752    15.197164     77.00853    88.922483    81.249922    1590.6189 
   97200   -1793843.1    36578.372    37897.059   -75004.843     387.2426   -264.14202   -332.15553     77.00853    88.922483    81.249922    1600.5225 
   97300   -1793821.8     36981.01     36238.13   -74732.362   -73.145451   -843.06516   -319.18975     77.00853    88.922483    81.249922    1600.1562 
   97400   -1793820.2    36654.577    36760.624   -74806.727   -109.89575   -99.006264   -470.57544     77.00853    88.922483    81.249922    1601.9165 
   97500   -1793815.1    37209.322    36054.874   -74279.695    -512.4377   -369.90727   -295.08691     77.00853    88.922483    81.249922    1598.0391 
   97600   -1793825.4    37355.676    36298.203   -74391.612    -39.39595   -155.01696   -107.69823     77.00853    88.922483    81.249922    1598.5597 
   97700   -1793829.7    37114.303    36574.366   -74892.584    354.18146   -214.00058    78.803108     77.00853    88.922483    81.249922    1592.6033 
   97800   -1793828.3    36558.718    37078.398   -74881.251   -70.885277   -8.2548829    158.44866     77.00853    88.922483    81.249922    1596.8874 
   97900   -1793798.7     36348.01      38107.4    -74076.36      245.303     41.53623    43.531302     77.00853    88.922483    81.249922    1587.0529 
   98000   -1793850.8    36723.765    36086.103   -75411.506    331.21524    72.693008    26.176787     77.00853    88.922483    81.249922     1590.949 
   98100   -1793979.5      36359.4    35616.556    -75248.25   -428.12979    404.97376   -590.15379     77.00853    88.922483    81.249922    1604.3293 
   98200   -1793851.1     35804.12    37187.565   -75208.888   -150.42448    119.37574    334.64313     77.00853    88.922483    81.249922    1609.4679 
   98300   -1793848.9    37180.756    35715.849   -74574.367    121.00337   -111.99527   -161.20598     77.00853    88.922483    81.249922    1592.2772 
   98400   -1793922.5    37028.944    35545.003   -73703.985   -101.39475   -345.48739   -317.32788     77.00853    88.922483    81.249922    1596.3221 
   98500   -1793896.4    36021.172    36238.908   -74187.907   -331.59605    102.73631    541.79628     77.00853    88.922483    81.249922    1606.0236 
   98600   -1793861.2    36174.476     36465.94   -74591.771    15.704485    178.93354    160.75035     77.00853    88.922483    81.249922    1594.4842 
   98700   -1793803.4    37049.688    36812.536   -74088.301     548.5147     101.2397    743.47225     77.00853    88.922483    81.249922    1598.5762 
   98800   -1793814.2    36848.211    36754.779   -74974.365   -740.62813   -195.39834    569.05173     77.00853    88.922483    81.249922    1605.8059 
   98900     -1793831    35603.239    36668.353   -75227.518   -473.36968   -549.24783    92.112014     77.00853    88.922483    81.249922    1602.1423 
   99000   -1793862.9    36134.253    36290.869   -74739.901    961.05842   -58.353769    524.62237     77.00853    88.922483    81.249922     1600.443 
   99100   -1793851.2    36959.972    36271.932   -74814.077   -271.29359   -559.00515    73.118861     77.00853    88.922483    81.249922    1605.1941 
   99200   -1793811.5    36810.294    36484.467   -75108.772   -401.99307   -383.05628    47.722841     77.00853    88.922483    81.249922      1600.24 
   99300   -1793753.5    37313.185    36571.479   -74396.291    106.32927   -719.04344    185.13677     77.00853    88.922483    81.249922     1596.693 
   99400   -1793819.1    36387.522    35759.591   -75121.784    209.07325    -838.9234    176.65745     77.00853    88.922483    81.249922    1596.6348 
   99500   -1793794.3    36890.486    36520.557   -74659.547    -365.7121   -345.00668    238.26935     77.00853    88.922483    81.249922    1599.3289 
   99600   -1793905.8    35622.142     35588.96   -74556.079   -165.79772   -362.78334    435.92555     77.00853    88.922483    81.249922    1599.2548 
   99700   -1793800.9    36167.919    36395.544   -73835.407    444.52736    -638.5991    823.35578     77.00853    88.922483    81.249922    1590.7538 
   99800   -1793850.6    37163.697    35583.085    -74026.93    440.33179   -433.80808    377.16925     77.00853    88.922483    81.249922    1602.0163 
   99900   -1793798.3    37050.535    36635.457   -74162.463   -539.21716    288.45443    129.92929     77.00853    88.922483    81.249922    1600.6072 
  100000   -1793816.7    36100.447    36238.854   -74295.145    935.49653   -41.687467    285.25512     77.00853    88.922483    81.249922    1599.0964 
  100028   -1793870.4    36370.635    35929.804   -74766.819    621.21967   -385.38587    46.351992     77.00853    88.922483    81.249922    1601.7303 
Loop time of 5918.34 on 15 procs for 50000 steps with 58275 atoms

Pair  time (%) = 4342.68 (73.3766)
Kspce time (%) = 1380.25 (23.3216)
Neigh time (%) = 82.5641 (1.39505)
Comm  time (%) = 82.8356 (1.39964)
Outpt time (%) = 0.393003 (0.00664042)
Other time (%) = 29.6191 (0.500462)

Nlocal:    3885 ave 3918 max 3821 min
Histogram: 1 2 0 0 0 1 2 3 3 3
Nghost:    18532.5 ave 18672 max 18419 min
Histogram: 5 1 0 0 0 5 1 0 0 3
Neighs:    1.49223e+06 ave 1.54112e+06 max 1.44798e+06 min
Histogram: 2 1 1 3 1 2 2 0 1 2

Total # of neighbors = 22383433
Ave neighs/atom = 384.1
Neighbor list builds = 1344
Dangerous builds = 0
unfix   2


write_data NPT_relaxed_1600.data
PPPM initialization ...
  G vector (1/distance) = 0.308964
  grid = 72 80 75
  stencil order = 5
  estimated absolute RMS force accuracy = 0.00178109
  estimated relative force accuracy = 0.00012369
  using double precision FFTs
  3d grid and FFT values/proc = 58144 28800

