

variable      mytemp equal  1800

# -------------------- FORCE FIELDS ----------------------
pair_style buck/coul/long 10.0 10.0

read_data	NPT_relaxed_1800.data
  orthogonal box = (0.0982245 0.113421 0.103634) to (77.2028 89.1468 81.4549)
  1 by 7 by 1 MPI processor grid
  reading atoms ...
  58275 atoms
  reading velocities ...
  58275 velocities

pair_coeff    * * 1e-30 1e-30 0.0
pair_coeff    1 2 1204.18 0.3165   0.0
pair_coeff    1 1 9547.96 0.21916  32.0

kspace_style    pppm 0.0001

## Define group
group oxygen type 1
34965 atoms in group oxygen
group chromium type 2
23310 atoms in group chromium


## --------------------- NVT  --------------------
compute allmsd all displace/atom

#dump          2 all custom 25000  dump/dump id type xu yu zu c_allmsd[1] c_allmsd[2] c_allmsd[3] c_allmsd[4]
#dump          1 all xyz 25000 xyz/all.xyz
#dump_modify   1 element O Cr



compute   Omsd oxygen msd com yes
compute   Crmsd chromium msd com yes
variable  OMSDX equal "c_Omsd[1]"
variable  OMSDY equal "c_Omsd[2]"
variable  OMSDZ equal "c_Omsd[3]"
variable  OMSDAll equal "c_Omsd[4]"

variable  CrMSDX equal "c_Crmsd[1]"
variable  CrMSDY equal "c_Crmsd[2]"
variable  CrMSDZ equal "c_Crmsd[3]"
variable  CrMSDAll equal "c_Crmsd[4]"

thermo          1000
thermo_style    custom step pe ke press lx ly lz temp c_Omsd[1]  c_Omsd[2]  c_Omsd[3]  c_Omsd[4]  c_Crmsd[1]  c_Crmsd[2]  c_Crmsd[3]  c_Crmsd[4]


fix          1 all print 100 "${OMSDX}   ${OMSDY}   ${OMSDZ}  ${OMSDAll}  ${CrMSDX}   ${CrMSDY}   ${CrMSDZ}  ${CrMSDAll}" file MSD1800.data screen no
fix          3 all nvt temp ${mytemp} ${mytemp} 0.01
fix          3 all nvt temp 1800 ${mytemp} 0.01
fix          3 all nvt temp 1800 1800 0.01

run      1000000
PPPM initialization ...
  G vector (1/distance) = 0.308879
  grid = 72 80 75
  stencil order = 5
  estimated absolute RMS force accuracy = 0.00178753
  estimated relative force accuracy = 0.000124137
  using double precision FFTs
  3d grid and FFT values/proc = 123082 64800
Memory usage per processor = 22.5308 Mbytes
Step PotEng KinEng Press Lx Ly Lz Temp Omsd[1] Omsd[2] Omsd[3] Omsd[4] Crmsd[1] Crmsd[2] Crmsd[3] Crmsd[4] 
       0   -1792135.6    13574.009   -146.22313    77.104551    89.033358    81.351231    1802.0576 5.070802e-29 5.0559295e-29  5.10459e-29 1.5231321e-28 4.5466761e-28 1.1950346e-29 5.0941937e-29 5.175599e-28 
    1000   -1792151.3    13509.136    92.629802    77.104551    89.033358    81.351231    1793.4452  0.035097999  0.033977126  0.046606969   0.11568209  0.028184585   0.02766986  0.037287533  0.093141978 
    2000   -1792159.8    13529.461    16.002043    77.104551    89.033358    81.351231    1796.1435  0.034503663  0.034565671  0.043957385   0.11302672  0.027423045  0.027534998  0.034368856  0.089326899 
    3000   -1792215.8    13576.867     69.09531    77.104551    89.033358    81.351231     1802.437  0.035144346  0.033341578  0.044463522   0.11294945    0.0278318  0.026586615  0.035637314  0.090055729 
    4000   -1792159.8    13550.454   -69.070861    77.104551    89.033358    81.351231    1798.9305  0.035762394  0.034990737  0.045524911   0.11627804  0.028646794  0.028050287  0.036248046  0.092945128 
    5000   -1792091.4    13531.002    383.56856    77.104551    89.033358    81.351231     1796.348  0.035426829     0.036458   0.04556857    0.1174534  0.027482674  0.028760544  0.035679049  0.091922268 
    6000   -1792216.8    13487.166   -110.16065    77.104551    89.033358    81.351231    1790.5285  0.036727429  0.035313404  0.047534572   0.11957541  0.029274948     0.027851  0.037151499  0.094277447 
    7000   -1792279.2    13539.547    129.28206    77.104551    89.033358    81.351231    1797.4825  0.035744398  0.034658247  0.045302699   0.11570534  0.027626059  0.026737617  0.035526719  0.089890395 
    8000   -1792108.3    13597.992    491.36878    77.104551    89.033358    81.351231    1805.2415  0.036540778  0.035984877  0.045153265   0.11767892  0.028348848  0.028643634  0.035769152  0.092761634 
    9000   -1792153.5    13594.808    650.91825    77.104551    89.033358    81.351231    1804.8188  0.035925498  0.035937927  0.045805203   0.11766863  0.027905979  0.027743094  0.036310105  0.091959177 
   10000   -1792274.2    13577.029    71.203879    77.104551    89.033358    81.351231    1802.4586    0.0355605  0.036438467  0.044152385   0.11615135  0.026946386  0.027514281  0.034427575  0.088888242 
   11000   -1792204.2    13585.398    65.798846    77.104551    89.033358    81.351231    1803.5695  0.037836134   0.03617375  0.045942361   0.11995225  0.029235686  0.028099864  0.035808956  0.093144506 
   12000   -1792146.2    13621.916    127.98678    77.104551    89.033358    81.351231    1808.4176  0.035407674  0.037377066  0.043955099   0.11673984  0.027505275  0.028798732  0.034417127  0.090721135 
   13000   -1792160.1      13686.1    920.61495    77.104551    89.033358    81.351231    1816.9385  0.037535335  0.036284855   0.04535547   0.11917566   0.02882355  0.027469566  0.035774269  0.092067385 
   14000   -1792195.4    13670.273    247.73148    77.104551    89.033358    81.351231    1814.8373  0.036756011  0.035486647  0.044971923   0.11721458  0.027831206  0.027115802  0.035068278  0.090015285 
   15000   -1792215.4    13570.057    322.32383    77.104551    89.033358    81.351231     1801.533  0.036529361   0.03681001  0.045262411   0.11860178  0.028196597  0.028254817  0.035510648  0.091962062 
   16000   -1792148.2    13537.784    -27.93787    77.104551    89.033358    81.351231    1797.2484  0.036999076   0.03595303  0.046320879   0.11927298  0.028531718   0.02729717  0.036799626  0.092628514 
   17000   -1792185.9    13527.024    450.01656    77.104551    89.033358    81.351231    1795.8199  0.035837833   0.03666638  0.045015678   0.11751989   0.02720321  0.028193794  0.035469025  0.090866029 
   18000   -1792057.9    13543.631    638.79833    77.104551    89.033358    81.351231    1798.0246  0.037324167  0.037002421  0.045899306   0.12022589  0.028775321  0.028984495   0.03598876  0.093748576 
   19000     -1792241    13653.996   -337.77034    77.104551    89.033358    81.351231    1812.6765  0.035943337  0.036741352  0.044867825   0.11755251  0.027409861  0.028336688  0.034992775  0.090739324 
   20000   -1792238.3    13577.894    78.622405    77.104551    89.033358    81.351231    1802.5733  0.036999247  0.036233779  0.044396371    0.1176294  0.028029876   0.02768008   0.03480363  0.090513586 
   21000   -1792099.6    13541.823     1005.344    77.104551    89.033358    81.351231    1797.7847  0.037471814  0.036832345  0.046263678   0.12056784  0.028736604   0.02770372  0.036020256   0.09246058 
   22000   -1792155.3    13614.195    647.25784    77.104551    89.033358    81.351231    1807.3926  0.036902553  0.037056186  0.043717324   0.11767606  0.027621731  0.028204826  0.034799189  0.090625745 
   23000   -1792165.7    13558.063     91.50465    77.104551    89.033358    81.351231    1799.9406  0.038045905  0.036635625   0.04535996   0.12004149  0.028350424  0.027571013  0.036011987  0.091933425 
   24000     -1792126    13584.647    738.70104    77.104551    89.033358    81.351231    1803.4699  0.038032407  0.036847187  0.045528689   0.12040828  0.028348034  0.028011745  0.035855348  0.092215128 
   25000   -1792210.5    13563.431    72.630861    77.104551    89.033358    81.351231    1800.6532  0.037916738  0.037194069  0.045844805   0.12095561  0.028221737  0.027985422  0.035070219  0.091277378 
   26000   -1792196.5    13536.505   -4.2309325    77.104551    89.033358    81.351231    1797.0786  0.037225379  0.037462552  0.048035259   0.12272319  0.027903131  0.028221783  0.037655782  0.093780697 
   27000   -1792215.4    13510.679    148.59664    77.104551    89.033358    81.351231      1793.65  0.036540376  0.036920737  0.046044772   0.11950589  0.027210385  0.028004968  0.036215351  0.091430704 
   28000   -1792233.5    13565.133     -34.4573    77.104551    89.033358    81.351231    1800.8792  0.036954451  0.036514183  0.046261146   0.11972978  0.027559468  0.027446556  0.037010222  0.092016247 
   29000   -1792212.4    13576.416    56.197318    77.104551    89.033358    81.351231    1802.3771  0.037457916  0.036929855   0.04427903    0.1186668  0.028246542  0.027608218  0.034158586  0.090013347 
   30000   -1792179.7    13611.615    33.791489    77.104551    89.033358    81.351231      1807.05  0.038525603  0.037146697  0.044956974   0.12062927  0.028859651  0.028710423  0.035203769  0.092773843 
   31000   -1792152.6    13606.279    674.81091    77.104551    89.033358    81.351231    1806.3417  0.036910556   0.03717208   0.04565135   0.11973399  0.028375405  0.028836441  0.036178741  0.093390586 
   32000   -1792178.2    13590.582    104.66124    77.104551    89.033358    81.351231    1804.2578  0.038591076  0.037704233  0.044381456   0.12067676  0.029045893  0.029268031  0.034518564  0.092832488 
   33000   -1792179.1    13549.004    56.285308    77.104551    89.033358    81.351231     1798.738  0.037746452  0.036667669  0.045921624   0.12033574  0.028510521  0.028365945  0.036103037  0.092979502 
   34000   -1792174.2    13513.515    12.052267    77.104551    89.033358    81.351231    1794.0265  0.037299688  0.037323742  0.044928154   0.11955158  0.028139665  0.028613044  0.035022302  0.091775012 
   35000   -1792208.4    13616.729    328.14742    77.104551    89.033358    81.351231     1807.729  0.038386618  0.037793947  0.046873525   0.12305409  0.029217704  0.029117375  0.036514049  0.094849128 
   36000   -1792214.5    13645.271    -86.63149    77.104551    89.033358    81.351231    1811.5181  0.036981103  0.036833921  0.045119415   0.11893444  0.027504438  0.028210947  0.034767026  0.090482411 
   37000   -1792173.6    13600.415   -18.684444    77.104551    89.033358    81.351231    1805.5631  0.037259491  0.037541539   0.04472745   0.11952848  0.028085258  0.028612401  0.035443761  0.092141419 
   38000   -1792143.9    13535.233    603.28408    77.104551    89.033358    81.351231    1796.9097   0.03759264  0.038882423  0.046700198   0.12317526  0.028096957  0.029534559  0.036719729  0.094351246 
   39000     -1792288    13606.572   -473.26529    77.104551    89.033358    81.351231    1806.3806  0.037148203  0.037425162  0.045068885   0.11964225  0.027668466  0.028320768  0.035260722  0.091249956 
   40000   -1792244.3    13631.149   -806.13937    77.104551    89.033358    81.351231    1809.6433  0.038387848  0.037160534  0.046709677   0.12225806  0.028385338   0.02799865  0.037040337  0.093424324 
   41000   -1792148.1    13596.216    547.45173    77.104551    89.033358    81.351231    1805.0058  0.037761021  0.037811198  0.046254953   0.12182717  0.028231801  0.028493159  0.036003288  0.092728248 
   42000   -1792227.9    13535.401   -559.23457    77.104551    89.033358    81.351231    1796.9321  0.038854405  0.037604063  0.045118908   0.12157738   0.02952598   0.02921077  0.035344042  0.094080792 
   43000   -1792223.9    13599.638   -218.21492    77.104551    89.033358    81.351231      1805.46  0.037952526  0.037729806  0.046149882   0.12183221  0.027649663  0.028777977  0.035734179  0.092161819 
   44000   -1792189.9    13550.417    382.68901    77.104551    89.033358    81.351231    1798.9255  0.037096915  0.037829548  0.044571377   0.11949784  0.028147354  0.029584156   0.03472507   0.09245658 
   45000   -1792219.9    13581.127   -350.28035    77.104551    89.033358    81.351231    1803.0026  0.037354191  0.038651213   0.04532123   0.12132663  0.029064943  0.029948447   0.03554976   0.09456315 
   46000   -1792150.4    13505.099   -15.462519    77.104551    89.033358    81.351231    1792.9092  0.037548278  0.037823031  0.045025313   0.12039662  0.029479845  0.028870293  0.035430823  0.093780961 
   47000   -1792148.9    13444.793    25.246575    77.104551    89.033358    81.351231    1784.9032  0.038177476  0.037364645  0.045748981    0.1212911  0.029412699  0.028343164  0.035726018  0.093481881 
   48000   -1792123.8    13597.246    234.58637    77.104551    89.033358    81.351231    1805.1425  0.037328048  0.038674716  0.045844505   0.12184727  0.028963519  0.029665235  0.037230663  0.095859417 
   49000   -1792215.1    13591.702    81.623133    77.104551    89.033358    81.351231    1804.4065  0.036495514  0.039357673  0.044985072   0.12083826  0.028409694  0.030634459  0.035678612  0.094722765 
   50000   -1792146.1    13517.188    4.3493556    77.104551    89.033358    81.351231    1794.5142  0.037888575  0.037955997  0.046753792   0.12259836  0.029339524  0.028926318  0.037135598  0.095401441 
   51000   -1792122.4    13631.388    124.09363    77.104551    89.033358    81.351231    1809.6751  0.037548008  0.038595694  0.045946763   0.12209047  0.029388994  0.029803186  0.035887663  0.095079843 
   52000   -1792221.7    13551.972    113.45261    77.104551    89.033358    81.351231     1799.132  0.038473577  0.038280634  0.045225088    0.1219793  0.029163793  0.028566142  0.035466754   0.09319669 
   53000   -1792245.1    13575.131    -225.6107    77.104551    89.033358    81.351231    1802.2065  0.038101864  0.038088463  0.046412599   0.12260293  0.028818769  0.029194856  0.035962877  0.093976501 
   54000     -1792203    13646.012    -251.9818    77.104551    89.033358    81.351231    1811.6166  0.038423468  0.038595028  0.046006391   0.12302489  0.029342673  0.029418181  0.036419871  0.095180725 
   55000   -1792173.5    13545.874    398.67505    77.104551    89.033358    81.351231    1798.3224  0.039156465  0.039961948  0.047327398   0.12644581  0.029941507  0.030426468  0.036890374   0.09725835 
   56000   -1792239.7    13523.505    -622.8511    77.104551    89.033358    81.351231    1795.3528  0.037321351   0.03929895  0.047236171   0.12385647  0.029211379  0.029263324  0.036584494  0.095059197 
   57000   -1792269.1    13536.084    -927.7759    77.104551    89.033358    81.351231    1797.0228  0.038215183  0.038553857  0.045328037   0.12209708  0.029276899  0.028962644  0.035785988  0.094025531 
   58000   -1792198.3    13541.979   -71.842692    77.104551    89.033358    81.351231    1797.8054  0.037834235  0.039441306  0.045818246   0.12309379  0.028249567  0.030013372  0.036237398  0.094500337 
   59000   -1792260.8    13529.058   -361.50204    77.104551    89.033358    81.351231      1796.09  0.037498242   0.03880616  0.045806676   0.12211108   0.02882134  0.029818602  0.036640689  0.095280631 
   60000   -1792239.3    13493.563   -356.12427    77.104551    89.033358    81.351231    1791.3778  0.038055388  0.038514097  0.047052358   0.12362184  0.029798951  0.028722094  0.037197197  0.095718242 
   61000     -1792254    13573.414    -778.9389    77.104551    89.033358    81.351231    1801.9786  0.037005114   0.03877044  0.045534236   0.12130979  0.028745648  0.029470699   0.03528216  0.093498506 
   62000     -1792231    13604.571   -59.993181    77.104551    89.033358    81.351231    1806.1149  0.036925168  0.039122222  0.046825205   0.12287259  0.028262132  0.030441247  0.036830825  0.095534203 
   63000   -1792187.7    13651.152    603.94793    77.104551    89.033358    81.351231     1812.299  0.038180395  0.038813537  0.046640307   0.12363424  0.029202396  0.029739781  0.037197373   0.09613955 
   64000   -1792270.1    13574.191   -571.82266    77.104551    89.033358    81.351231    1802.0818   0.03716406  0.038571227  0.044886295   0.12062158  0.028128579  0.029420121  0.034815138  0.092363838 
   65000   -1792223.2    13533.405   -144.59268    77.104551    89.033358    81.351231    1796.6671  0.038076983   0.03801018  0.046638511   0.12272567  0.029342487  0.029495736  0.037070483  0.095908707 
   66000   -1792223.7    13615.782   -518.16812    77.104551    89.033358    81.351231    1807.6033  0.038402129  0.038019592  0.046199002   0.12262072  0.029502867  0.030203709  0.036476218  0.096182794 
   67000   -1792195.9     13577.02   -128.49374    77.104551    89.033358    81.351231    1802.4573   0.03812241  0.038262179  0.046457951   0.12284254  0.029202111  0.029266721  0.035708958   0.09417779 
   68000   -1792160.9    13504.238   -2.1526574    77.104551    89.033358    81.351231    1792.7949  0.038130393  0.038797008  0.046994036   0.12392144  0.029612339  0.029288872  0.036179354  0.095080565 
   69000   -1792067.1    13511.533    360.02445    77.104551    89.033358    81.351231    1793.7634  0.038495252  0.039140242  0.046019473   0.12365497  0.029394184  0.029848734  0.036545562   0.09578848 
   70000   -1792314.5    13488.029   -723.88957    77.104551    89.033358    81.351231    1790.6431  0.036793676  0.038584418   0.04646099   0.12183908   0.02911309  0.029326196  0.037548108  0.095987394 
   71000   -1792256.4    13574.794    164.55239    77.104551    89.033358    81.351231    1802.1618  0.037891285  0.038132244  0.045881745   0.12190527  0.028930629  0.029540392  0.036183068   0.09465409 
   72000   -1792319.2    13581.054   -607.43696    77.104551    89.033358    81.351231    1802.9929   0.03856571  0.038781765  0.045027726    0.1223752  0.029735612  0.030297141  0.035795549  0.095828303 
   73000   -1792166.1    13538.612    238.95402    77.104551    89.033358    81.351231    1797.3584  0.038615291  0.037597577  0.046514878   0.12272775  0.029498744  0.028368721  0.037128298  0.094995763 
   74000     -1792109    13495.401    296.82057    77.104551    89.033358    81.351231    1791.6217  0.038488325  0.037664462  0.045872241   0.12202503  0.029361208  0.028364576  0.036158888  0.093884672 
   75000   -1792089.3    13581.773    489.65998    77.104551    89.033358    81.351231    1803.0884  0.039480541  0.038736987  0.046143639   0.12436117  0.029728592  0.029918213  0.036400236   0.09604704 
   76000   -1792170.2    13592.223    603.94733    77.104551    89.033358    81.351231    1804.4756  0.037946832  0.037564553  0.045517156   0.12102854  0.028365467  0.029571206   0.03617629  0.094112963 
   77000   -1792220.6    13623.575   -304.09986    77.104551    89.033358    81.351231    1808.6379  0.038894076  0.038311742  0.046847042   0.12405286  0.029419541  0.029702432  0.036574006  0.095695978 
   78000   -1792237.4    13627.117   -157.01623    77.104551    89.033358    81.351231    1809.1081  0.038317946  0.038633005  0.045676576   0.12262753  0.029334169  0.029722871  0.035757319  0.094814358 
   79000   -1792201.6     13567.83    19.821544    77.104551    89.033358    81.351231    1801.2373    0.0377122  0.038666878   0.04671753   0.12309661  0.028456278  0.029888705  0.036347297  0.094692281 
   80000   -1792198.8    13590.799   -29.834681    77.104551    89.033358    81.351231    1804.2865  0.038249119  0.038012877  0.047048167   0.12331016  0.028715781  0.029627527  0.036272664  0.094615972 
   81000   -1792195.1    13564.277   -220.63447    77.104551    89.033358    81.351231    1800.7656  0.037433334  0.037699138  0.045853596   0.12098607  0.029100292  0.029241314  0.036195009  0.094536614 
   82000     -1792138    13544.509    267.33119    77.104551    89.033358    81.351231    1798.1413  0.038351904  0.040179099  0.047224968   0.12575597  0.028762241  0.031193347  0.037131576  0.097087164 
   83000   -1792186.2     13657.41    -413.9954    77.104551    89.033358    81.351231    1813.1298  0.037335175  0.039020842  0.046192138   0.12254816  0.027892983  0.030107938  0.036476782  0.094477703 
   84000   -1792150.2    13545.272   -123.44162    77.104551    89.033358    81.351231    1798.2426  0.038135917  0.039084368  0.045750816    0.1229711  0.028571114  0.029776011  0.035422133  0.093769258 
   85000   -1792255.2     13581.09   -411.05615    77.104551    89.033358    81.351231    1802.9976  0.037957632  0.037709465  0.046831681   0.12249878  0.029130196  0.029357584  0.036793078  0.095280857 
   86000   -1792255.9    13633.443   -443.60598    77.104551    89.033358    81.351231    1809.9479  0.037980169  0.037834363  0.047790057   0.12360459  0.028785242  0.029508574  0.037078043  0.095371859 
   87000   -1792158.7    13583.262    1186.6067    77.104551    89.033358    81.351231     1803.286   0.03877969  0.038114691  0.046145392   0.12303977  0.029827529  0.030015904  0.036495995  0.096339429 
   88000   -1792190.5     13493.53    -288.8007    77.104551    89.033358    81.351231    1791.3734  0.037035909  0.038021883  0.047207426   0.12226522  0.028256792  0.028702806  0.037293081   0.09425268 
   89000   -1792214.1    13568.618   -194.33433    77.104551    89.033358    81.351231    1801.3419  0.037931422  0.038311214  0.047804032   0.12404667  0.028835545  0.029630085  0.036878489   0.09534412 
   90000   -1792168.5    13590.498    311.19634    77.104551    89.033358    81.351231    1804.2466  0.039491876  0.038325081  0.045957026   0.12377398   0.03000259  0.029725256  0.035593831  0.095321677 
   91000   -1792166.6    13586.198    447.22708    77.104551    89.033358    81.351231    1803.6758  0.038267163   0.03821514  0.046754805   0.12323711  0.028875658  0.029003426  0.035750571  0.093629656 
   92000   -1792180.9    13589.991    293.56117    77.104551    89.033358    81.351231    1804.1793  0.038866023  0.039273742  0.047812198   0.12595196  0.028839248  0.030022536  0.037869774  0.096731557 
   93000   -1792150.5     13590.55    350.59295    77.104551    89.033358    81.351231    1804.2536   0.03830224  0.038518525  0.046509768   0.12333053  0.029085651  0.029218889  0.036979071  0.095283611 
   94000     -1792101    13621.733     428.5618    77.104551    89.033358    81.351231    1808.3933  0.038644703  0.039705254  0.047091056   0.12544101  0.029290824  0.030962107  0.036948309   0.09720124 
   95000   -1792141.9    13582.712    414.90978    77.104551    89.033358    81.351231     1803.213  0.038359932  0.038759467  0.047525528   0.12464493  0.029456182  0.029551493  0.036771115   0.09577879 
   96000   -1792142.2    13539.386    663.91156    77.104551    89.033358    81.351231    1797.4611  0.038522089  0.039304275  0.046331618   0.12415798  0.029059113  0.029759054  0.036995552   0.09581372 
   97000   -1792201.1    13610.923   -48.542273    77.104551    89.033358    81.351231    1806.9582   0.03907605  0.038328985  0.047174734   0.12457977   0.03014071  0.028747196  0.037210113   0.09609802 
   98000   -1792264.6    13575.108    179.69358    77.104551    89.033358    81.351231    1802.2035  0.037950961   0.03886889  0.045238151     0.122058  0.029557585   0.02906662  0.035603051  0.094227257 
   99000   -1792239.2    13667.035    48.953305    77.104551    89.033358    81.351231    1814.4075  0.038926816  0.039113487  0.046068486   0.12410879  0.029691132  0.029306448  0.036215623  0.095213203 
  100000   -1792139.6    13643.692    523.94422    77.104551    89.033358    81.351231    1811.3086  0.038808181  0.040393513  0.046846718   0.12604841  0.029971845  0.030639731  0.036757719  0.097369295 
  101000   -1792226.3    13538.489    584.78327    77.104551    89.033358    81.351231     1797.342  0.038247827  0.038874654  0.046384644   0.12350712  0.029190523  0.029986245  0.036487923  0.095664691 
  102000   -1792179.3    13603.817    235.76395    77.104551    89.033358    81.351231    1806.0148  0.039803802   0.03960201   0.04719606   0.12660187  0.030015629  0.030393333  0.036550505  0.096959467 
  103000   -1792196.1    13604.048    256.67412    77.104551    89.033358    81.351231    1806.0455  0.037917954   0.03953728  0.047603087   0.12505832  0.028706578  0.030556706  0.037759609  0.097022893 
  104000   -1792209.6    13512.938    475.17287    77.104551    89.033358    81.351231    1793.9499  0.038402079  0.038222893  0.047696694   0.12432167  0.029098163  0.029322497  0.038004545  0.096425205 
  105000   -1792127.7    13651.114    1244.7426    77.104551    89.033358    81.351231    1812.2939  0.038507644  0.038526411  0.046507816   0.12354187  0.029220976  0.029872591  0.036622494  0.095716061 
  106000   -1792187.4    13510.272    -164.5429    77.104551    89.033358    81.351231    1793.5959  0.038854509  0.039162801  0.048738854   0.12675616  0.029319052   0.02965402  0.038481537  0.097454609 
  107000   -1792086.5     13562.92    556.38112    77.104551    89.033358    81.351231    1800.5854  0.038745322  0.039430763   0.04822045   0.12639653   0.02956227  0.030307455  0.038119097  0.097988822 
  108000   -1792179.9    13539.662   -400.19984    77.104551    89.033358    81.351231    1797.4977  0.038981571  0.038868428  0.048901834   0.12675183  0.029622549  0.030030221  0.039161217  0.098813988 
  109000   -1792224.2    13561.619   -186.35239    77.104551    89.033358    81.351231    1800.4128  0.039613406  0.039098933  0.046990702   0.12570304   0.02989894  0.029579192   0.03638709  0.095865221 
  110000   -1792159.3     13549.11   -238.60952    77.104551    89.033358    81.351231     1798.752   0.03869516  0.038935958  0.046425972   0.12405709  0.029303376  0.029449411  0.036208823   0.09496161 
  111000   -1792186.8    13603.428   -248.92815    77.104551    89.033358    81.351231    1805.9632  0.038558857  0.038396864  0.046613611   0.12356933  0.029110199   0.02974885  0.036548502   0.09540755 
  112000   -1792264.1     13545.09    -47.49559    77.104551    89.033358    81.351231    1798.2184  0.039099173  0.039575459  0.046617798   0.12529243  0.030223775  0.030469875  0.037199702  0.097893352 
  113000   -1792261.9    13648.971   -61.139407    77.104551    89.033358    81.351231    1812.0094  0.038240228  0.038726267  0.046352008    0.1233185  0.029281339  0.029847987  0.036753124  0.095882449 
  114000   -1792219.9    13571.221    372.26276    77.104551    89.033358    81.351231    1801.6874  0.039092979  0.038734987  0.046287864   0.12411583  0.029088203  0.030002971  0.036376938  0.095468112 
  115000     -1792173    13581.367    232.51989    77.104551    89.033358    81.351231    1803.0344  0.038451109  0.038434343  0.046734469   0.12361992   0.02909008  0.029790464  0.036059826   0.09494037 
  116000   -1792131.7    13582.073    341.63086    77.104551    89.033358    81.351231    1803.1282  0.038439488  0.037993673  0.046623321   0.12305648   0.02941781  0.029314266  0.036574842  0.095306918 
  117000   -1792215.1    13598.546   -69.383041    77.104551    89.033358    81.351231    1805.3151  0.038748586  0.038103075  0.046588184   0.12343985  0.029751053   0.02946492  0.036297633  0.095513606 
  118000   -1792207.7     13613.23   -69.636445    77.104551    89.033358    81.351231    1807.2645  0.037604093  0.038754289  0.046763451   0.12312183  0.029277247  0.029131716  0.036628322  0.095037285 
  119000   -1792255.1    13546.666   -226.32766    77.104551    89.033358    81.351231    1798.4276  0.038566592  0.039622639  0.047456788   0.12564602   0.02870914  0.029984477  0.037186764   0.09588038 
  120000   -1792213.1    13574.553   -351.28062    77.104551    89.033358    81.351231    1802.1298  0.038221285  0.038788045  0.046928626   0.12393796  0.029082174   0.02950438  0.036479701  0.095066256 
  121000   -1792172.1    13520.442     197.4175    77.104551    89.033358    81.351231    1794.9462  0.038603675  0.039221466  0.046734366   0.12455951  0.029196026  0.029739222  0.036540353  0.095475601 
  122000   -1792163.2    13563.371    115.65306    77.104551    89.033358    81.351231    1800.6453  0.039006963  0.039793533  0.047859512   0.12666001  0.029115325  0.030228005   0.03757978   0.09692311 
  123000   -1792207.3    13537.717    151.75514    77.104551    89.033358    81.351231    1797.2395  0.038725504  0.040637537  0.047017543   0.12638058  0.029246055   0.03074658  0.036495559  0.096488194 
  124000   -1792180.8    13538.267    -289.6531    77.104551    89.033358    81.351231    1797.3126  0.039512897  0.039866734  0.046569145   0.12594878  0.030160061  0.029542277  0.035594747  0.095297085 
  125000   -1792215.8    13617.159   -273.61001    77.104551    89.033358    81.351231    1807.7861  0.038852437  0.040616706  0.047241743   0.12671089  0.029284675  0.030592176   0.03652144  0.096398291 
  126000   -1792216.9    13603.079    131.36355    77.104551    89.033358    81.351231    1805.9168  0.039007533  0.040197742   0.04619811   0.12540339  0.028827104  0.030607659  0.035775755  0.095210518 
  127000   -1792143.5    13568.857    513.44109    77.104551    89.033358    81.351231    1801.3736   0.03973213   0.04100044  0.046285235    0.1270178  0.029578951  0.030418384  0.035618315   0.09561565 
  128000   -1792098.2    13575.365    506.76204    77.104551    89.033358    81.351231    1802.2377  0.039409626  0.040056646  0.046906985   0.12637326  0.029445758  0.029734772  0.036453419  0.095633949 
  129000   -1792216.1    13522.445    10.207275    77.104551    89.033358    81.351231    1795.2121  0.038926205  0.039433647  0.047206277   0.12556613  0.028511894  0.029807033   0.03647556  0.094794487 
  130000   -1792226.5    13539.744    242.33225    77.104551    89.033358    81.351231    1797.5086  0.039363588  0.040267566  0.047241521   0.12687268  0.029738579  0.030148757  0.037069254  0.096956589 
  131000   -1792177.1    13503.249    70.459004    77.104551    89.033358    81.351231    1792.6636   0.03826299  0.040440625  0.048423407   0.12712702  0.028294916  0.029441834  0.037052708  0.094789458 
  132000   -1792194.1    13534.536   -673.38847    77.104551    89.033358    81.351231    1796.8172  0.037877404   0.03991316  0.046342624   0.12413319  0.028846289  0.029934207  0.036254033   0.09503453 
  133000   -1792205.7    13619.644   -159.18973    77.104551    89.033358    81.351231     1808.116  0.039125229  0.040305947  0.047151932   0.12658311  0.029386686  0.029940255  0.037144477  0.096471418 
  134000   -1792199.4    13593.337   -331.28364    77.104551    89.033358    81.351231    1804.6235  0.039493832  0.039868118  0.047224688   0.12658664  0.029277563  0.029950719  0.036560977   0.09578926 
  135000   -1792234.7    13605.031   -189.12815    77.104551    89.033358    81.351231    1806.1759  0.038889945  0.039659552   0.04713477   0.12568427  0.029694173  0.029019366  0.036335645  0.095049185 
  136000   -1792254.8    13611.316   -135.41419    77.104551    89.033358    81.351231    1807.0104  0.039796661  0.039940749  0.047669808   0.12740722  0.030000352  0.029963167  0.037279478  0.097242996 
  137000   -1792122.1    13485.656    219.01007    77.104551    89.033358    81.351231     1790.328  0.038908635  0.039666693  0.046923306   0.12549863  0.029190255  0.029510678  0.037156682  0.095857615 
  138000   -1792115.2    13607.582    510.81442    77.104551    89.033358    81.351231    1806.5147  0.038511296   0.03971367  0.047452815   0.12567778  0.029247014  0.029964679  0.037464831  0.096676523 
  139000   -1792154.9    13526.847    367.99654    77.104551    89.033358    81.351231    1795.7965   0.03949557  0.040579913  0.045988352   0.12606384  0.030466056  0.030834458  0.036574462  0.097874975 
  140000   -1792241.8    13610.623   -33.767449    77.104551    89.033358    81.351231    1806.9184  0.038403027  0.039946061  0.046758027   0.12510712  0.029068756  0.030576022  0.036901779  0.096546557 
  141000     -1792234    13558.052    49.551426    77.104551    89.033358    81.351231    1799.9392  0.039665511  0.038974143  0.047806016   0.12644567  0.029937548  0.029490116  0.038073531  0.097501196 
  142000   -1792156.9    13578.496   -350.52536    77.104551    89.033358    81.351231    1802.6533  0.040129423  0.039480412  0.046482716   0.12609255  0.030300222  0.030422488  0.036451805  0.097174515 
  143000   -1792217.6    13590.168   -30.396415    77.104551    89.033358    81.351231    1804.2028  0.038674898  0.039631375  0.045554961   0.12386124   0.02893207     0.030558  0.035619268  0.095109337 
  144000   -1792172.3    13558.743   -273.14136    77.104551    89.033358    81.351231    1800.0309  0.039209793   0.03855708   0.04802914   0.12579601  0.029521905  0.029651985  0.037021677  0.096195567 
  145000   -1792215.9    13541.447   -1049.7102    77.104551    89.033358    81.351231    1797.7347  0.038904751  0.038604304  0.046502083   0.12401114  0.029322529  0.029550019   0.03661497  0.095487519 
  146000   -1792246.2    13627.086    194.33392    77.104551    89.033358    81.351231     1809.104  0.038980534  0.039102753  0.046980171   0.12506346  0.029312437  0.030429624  0.037513193  0.097255254 
  147000   -1792199.6    13642.053   -99.182245    77.104551    89.033358    81.351231    1811.0909  0.040103099  0.038470085  0.046477991   0.12505117  0.030721256  0.029828514  0.036543067  0.097092838 
  148000   -1792262.5    13518.168     112.0078    77.104551    89.033358    81.351231    1794.6443  0.039398309  0.037903382  0.046740284   0.12404198  0.029828515  0.029944276  0.036570971  0.096343762 
  149000   -1792208.5    13587.446    69.549954    77.104551    89.033358    81.351231    1803.8414  0.039516881   0.03953519   0.04669722   0.12574929  0.030146397  0.030925693  0.037279369  0.098351459 
  150000   -1792147.4    13539.869    294.49227    77.104551    89.033358    81.351231    1797.5253  0.038921652   0.03882568  0.047021307   0.12476864  0.029475071  0.029904332  0.037140576   0.09651998 
  151000   -1792222.7    13508.863   -406.99429    77.104551    89.033358    81.351231    1793.4089  0.039759672  0.039490706  0.047004323    0.1262547  0.030334019  0.030517907  0.037505442  0.098357368 
  152000     -1792283    13557.874   -253.04842    77.104551    89.033358    81.351231    1799.9156  0.039400283   0.03919971   0.04817437   0.12677436  0.029810227    0.0300027  0.038229486  0.098042414 
  153000     -1792182      13584.9   -720.10905    77.104551    89.033358    81.351231    1803.5034  0.039502969   0.03922882  0.047808114    0.1265399  0.029923477  0.029960146   0.03799301  0.097876634 
  154000   -1792236.8    13574.509   -294.68665    77.104551    89.033358    81.351231    1802.1239  0.040257309    0.0387151  0.046516497   0.12548891  0.031553677  0.029601488  0.036743045   0.09789821 
  155000     -1792253    13557.667   -50.846314    77.104551    89.033358    81.351231     1799.888  0.038593848  0.038927023  0.047282001   0.12480287  0.029953909  0.030096151  0.037823651  0.097873711 
  156000   -1792203.9    13544.464   -185.29074    77.104551    89.033358    81.351231    1798.1352  0.038265605  0.039762489  0.046762481   0.12479058  0.029831934  0.030105721  0.037363748  0.097301402 
  157000   -1792316.6    13526.187   -905.90048    77.104551    89.033358    81.351231    1795.7089  0.037913791  0.038645355   0.04596127   0.12252042  0.029660037  0.028999145  0.036787299  0.095446482 
  158000   -1792310.1    13630.997   -680.00276    77.104551    89.033358    81.351231    1809.6232  0.039142908  0.039889102  0.047759367   0.12679138  0.030186157   0.03020112  0.037656297  0.098043574 
  159000   -1792217.9    13537.929   -78.144286    77.104551    89.033358    81.351231    1797.2677  0.039239351  0.039983488  0.047313057    0.1265359  0.029816487  0.030331845  0.036980244  0.097128576 
  160000   -1792215.6    13601.887   -263.16385    77.104551    89.033358    81.351231    1805.7586  0.039228457  0.040158045  0.048073804   0.12746031  0.029783929  0.030127309  0.037410877  0.097322115 
  161000   -1792205.6     13534.55    8.2470129    77.104551    89.033358    81.351231    1796.8191   0.03908642  0.039561554  0.046524392   0.12517237  0.030873537  0.029868166  0.036954559  0.097696262 
  162000   -1792145.9    13528.219    260.58308    77.104551    89.033358    81.351231    1795.9786  0.038230132  0.039624299  0.047000451   0.12485488  0.029523639  0.029702989   0.03732703  0.096553658 
  163000   -1792261.8    13530.799   -108.27414    77.104551    89.033358    81.351231    1796.3211  0.039848983  0.039934996   0.04606922    0.1258532  0.029844076  0.030272131  0.037189132   0.09730534 
  164000   -1792144.1      13547.6   -116.64258    77.104551    89.033358    81.351231    1798.5516  0.039375966  0.039591352  0.046457099   0.12542442  0.029840742  0.029805299  0.036699016  0.096345057 
  165000     -1792195    13569.931    -195.7457    77.104551    89.033358    81.351231    1801.5162  0.039018044  0.040722804  0.048276337   0.12801718  0.029571859  0.031106711  0.038134288  0.098812858 
  166000   -1792221.2    13489.772   -351.69823    77.104551    89.033358    81.351231    1790.8744  0.038929757  0.040837034  0.046996434   0.12676322  0.029711338  0.031113918  0.037018114   0.09784337 
  167000   -1792186.1    13549.666   -197.59236    77.104551    89.033358    81.351231    1798.8259  0.039952514  0.039633401  0.046539539   0.12612545   0.03072462   0.02946611  0.036994256  0.097184985 
  168000   -1792203.8    13576.481    161.35968    77.104551    89.033358    81.351231    1802.3857  0.038649436  0.040792433  0.047858898   0.12730077   0.02934903  0.029989842  0.038050352  0.097389224 
  169000   -1792187.8    13488.028   -280.31064    77.104551    89.033358    81.351231    1790.6429  0.038380023  0.040516955  0.045804857   0.12470184  0.029526636  0.029981017  0.036974474  0.096482127 
  170000     -1792199    13501.231   -442.57711    77.104551    89.033358    81.351231    1792.3957  0.040300698  0.040668174  0.047134117   0.12810299  0.030841494  0.030729442    0.0372776  0.098848535 
  171000   -1792111.7    13579.116    167.12804    77.104551    89.033358    81.351231    1802.7356  0.039872853  0.041070254  0.049418404   0.13036151  0.030434519  0.031018825  0.039374434   0.10082778 
  172000   -1792137.9    13584.138   -332.56835    77.104551    89.033358    81.351231    1803.4023  0.039844951  0.040804744  0.047865745   0.12851544  0.030503529  0.031244539   0.03746715  0.099215218 
  173000   -1792236.3    13527.231   -98.195351    77.104551    89.033358    81.351231    1795.8475   0.04071903   0.04143655  0.046914567   0.12907015  0.031245551  0.031102026  0.037044611  0.099392187 
  174000   -1792295.5    13524.797    -387.6102    77.104551    89.033358    81.351231    1795.5243  0.039438223  0.039962143  0.047779528   0.12717989  0.029988215  0.029739659  0.037878288  0.097606162 
  175000   -1792099.4    13531.853    307.07948    77.104551    89.033358    81.351231    1796.4611  0.040517198   0.03876208  0.047618018    0.1268973  0.030890559  0.029788907  0.037747055  0.098426521 
  176000   -1792195.8    13554.768   -18.261689    77.104551    89.033358    81.351231    1799.5032   0.04037798  0.039763318  0.046103623   0.12624492  0.030560741  0.030156062  0.036643997    0.0973608 
  177000   -1792267.5     13542.09   -800.51848    77.104551    89.033358    81.351231      1797.82  0.039373637  0.039527216  0.046569943    0.1254708   0.02943732  0.030167156  0.037321863   0.09692634 
  178000   -1792152.5     13566.69    259.52275    77.104551    89.033358    81.351231    1801.0859  0.040468724   0.03980393  0.049054915   0.12932757  0.031190038  0.030297692  0.038821468    0.1003092 
  179000   -1792298.6    13563.448   -348.14394    77.104551    89.033358    81.351231    1800.6555  0.039133281  0.040256365  0.046446489   0.12583613  0.029514245  0.031038427  0.037159249  0.097711921 
  180000   -1792196.5    13541.671    -93.15445    77.104551    89.033358    81.351231    1797.7645  0.040371159  0.039275071  0.048352208   0.12799844  0.030395997  0.030392251  0.038639528  0.099427777 
  181000   -1792183.5    13550.282   -145.50852    77.104551    89.033358    81.351231    1798.9076  0.039221692  0.040236704  0.047455004    0.1269134   0.02946362  0.030562963  0.037388387   0.09741497 
  182000   -1792260.8    13575.498   -27.202321    77.104551    89.033358    81.351231    1802.2553  0.039399657  0.040402849  0.046583922   0.12638643    0.0296525  0.030660769  0.036635127  0.096948396 
  183000   -1792231.7    13551.429   -992.36303    77.104551    89.033358    81.351231    1799.0599  0.039076253  0.039832372  0.047820838   0.12672946  0.029856924   0.03014951  0.038682768  0.098689201 
  184000     -1792139    13565.394    -108.1264    77.104551    89.033358    81.351231    1800.9139  0.039659989  0.039990422  0.047475765   0.12712618   0.03020326  0.030220561  0.037343671  0.097767493 
  185000   -1792142.2    13603.852   -169.74446    77.104551    89.033358    81.351231    1806.0195  0.041014952  0.039733158  0.047402625   0.12815074  0.031633789  0.030001554  0.037371863  0.099007206 
  186000   -1792248.4     13575.67   -135.75623    77.104551    89.033358    81.351231    1802.2781  0.038567293   0.04023706  0.047001566   0.12580592  0.029287837   0.03050113  0.037579447  0.097368415 
  187000   -1792326.1    13595.596   -637.75933    77.104551    89.033358    81.351231    1804.9235  0.039300082   0.03993296  0.047686872   0.12691991  0.029973425  0.030110425  0.037691181   0.09777503 
  188000   -1792128.2    13617.703    310.16257    77.104551    89.033358    81.351231    1807.8583  0.040749968  0.040356202  0.048001084   0.12910725  0.030715419  0.030572269  0.038242188  0.099529876 
  189000   -1792236.9    13518.624   -9.1418648    77.104551    89.033358    81.351231    1794.7048  0.040303885   0.04023876  0.046321701   0.12686435  0.030291041  0.030570449  0.037317087  0.098178577 
  190000   -1792175.5    13521.561    371.72035    77.104551    89.033358    81.351231    1795.0947  0.039346771  0.040473899  0.047927218   0.12774789  0.029743301  0.030996219  0.039027167  0.099766687 
  191000   -1792188.7    13583.594   -44.529227    77.104551    89.033358    81.351231      1803.33   0.04046757  0.040220136  0.047991703   0.12867941  0.029872455  0.031099306  0.037718277  0.098690037 
  192000   -1792214.8     13599.75   -26.414526    77.104551    89.033358    81.351231     1805.475  0.040726041  0.039218123  0.047433279   0.12737744  0.029593936  0.029595607  0.037428934  0.096618477 
  193000     -1792152    13543.599   -141.14768    77.104551    89.033358    81.351231    1798.0204   0.04097922  0.040322883  0.048836387   0.13013849  0.029676303  0.030774453  0.038718143  0.099168899 
  194000   -1792140.7    13555.035    688.25968    77.104551    89.033358    81.351231    1799.5386  0.041938389  0.039716976  0.047829338    0.1294847  0.031072667  0.030077559  0.036475824   0.09762605 
  195000   -1792186.7    13559.145     44.62286    77.104551    89.033358    81.351231    1800.0843  0.041027019   0.03940092   0.04773186    0.1281598  0.029121823  0.029681616  0.037761085  0.096564523 
  196000   -1792230.3     13509.34    16.450094    77.104551    89.033358    81.351231    1793.4723  0.040558202  0.039980855  0.048170481   0.12870954  0.029862892  0.030413877  0.038026866  0.098303635 
  197000   -1792246.4     13535.59   -1034.2327    77.104551    89.033358    81.351231    1796.9571  0.040665766   0.04022262  0.047838436   0.12872682  0.030371591  0.029714996  0.037661616  0.097748203 
  198000   -1792184.5    13584.973   -268.06892    77.104551    89.033358    81.351231    1803.5132  0.040594621  0.039613235   0.04851518   0.12872304  0.030162909  0.029661883  0.038731878   0.09855667 
  199000   -1792165.8      13619.8    86.521993    77.104551    89.033358    81.351231    1808.1367  0.040524599  0.040344143  0.047061927   0.12793067  0.029803931  0.030197418   0.03752239  0.097523739 
  200000   -1792218.4    13642.432    124.00989    77.104551    89.033358    81.351231    1811.1412  0.040283503  0.039832064  0.048306741   0.12842231  0.030165475  0.030259194  0.038275818  0.098700487 
  201000     -1792272    13516.311    -812.0819    77.104551    89.033358    81.351231    1794.3978  0.040628222  0.040278894  0.047276674   0.12818379  0.030131208  0.030352332  0.037715947  0.098199486 
  202000   -1792234.1     13564.42    5.8093116    77.104551    89.033358    81.351231    1800.7846  0.040309288   0.04004548  0.047345577   0.12770034   0.03005167   0.03077013  0.037675336  0.098497136 
  203000   -1792204.8    13527.339   -452.31599    77.104551    89.033358    81.351231    1795.8618  0.041257263  0.040467874  0.047615226   0.12934036  0.031046916  0.031130861  0.037738712   0.09991649 
  204000     -1792232    13563.131   -245.07565    77.104551    89.033358    81.351231    1800.6134  0.039408492  0.039473111  0.048189136   0.12707074  0.030069576  0.029794403  0.037332349  0.097196328 
  205000     -1792215      13484.7   -402.47792    77.104551    89.033358    81.351231    1790.2012  0.040904529  0.040489641  0.050080988   0.13147516  0.030638909  0.031482179  0.040494387   0.10261547 
  206000   -1792194.5    13487.521    384.22898    77.104551    89.033358    81.351231    1790.5756  0.039777039  0.040198081  0.047780035   0.12775515  0.029986366  0.030645624   0.03831323   0.09894522 
  207000   -1792216.5    13584.003    35.748336    77.104551    89.033358    81.351231    1803.3844  0.039694922  0.039700031  0.047781272   0.12717622  0.029498113  0.030376796  0.038109569  0.097984478 
  208000   -1792217.8    13637.881    174.65768    77.104551    89.033358    81.351231    1810.5371  0.041661394  0.040033455   0.04842902   0.13012387  0.030847534  0.030493119  0.038701186   0.10004184 
  209000   -1792223.7    13522.398   -178.36957    77.104551    89.033358    81.351231    1795.2058  0.040190742  0.040283261   0.04747397   0.12794797  0.029792971  0.030283462  0.037033053  0.097109485 
  210000   -1792235.9    13463.982   -359.60478    77.104551    89.033358    81.351231    1787.4506  0.039561952  0.039294356  0.047376982   0.12623329  0.029387387  0.030081812  0.037861969  0.097331168 
  211000   -1792193.6    13542.303   -60.386608    77.104551    89.033358    81.351231    1797.8484  0.039924447  0.039989234  0.048519068   0.12843275  0.029644602   0.03016928   0.03843976  0.098253642 
  212000   -1792246.3    13529.655   -126.88574    77.104551    89.033358    81.351231    1796.1693  0.039600815  0.040505777   0.04779276   0.12789935  0.029158674  0.030641478  0.037236825  0.097036977 
  213000   -1792240.8    13479.482   -122.39465    77.104551    89.033358    81.351231    1789.5084  0.041316098  0.038969604  0.048367953   0.12865366  0.030171838  0.029840247  0.039026841  0.099038926 
  214000   -1792223.6      13561.8   -167.04029    77.104551    89.033358    81.351231    1800.4367  0.040196683  0.039108666  0.049167476   0.12847283  0.029337382  0.029647449  0.038202755  0.097187586 
  215000   -1792204.1    13538.746   -153.19905    77.104551    89.033358    81.351231    1797.3761    0.0410248  0.040446401   0.04871224   0.13018344  0.030414491  0.030416114  0.039117417  0.099948022 
  216000   -1792152.8    13489.742   -156.43312    77.104551    89.033358    81.351231    1790.8705  0.041576327  0.040014292  0.046975374   0.12856599  0.030937371  0.030429378  0.037072784  0.098439533 
  217000   -1792240.2    13573.066    152.28958    77.104551    89.033358    81.351231    1801.9324   0.04067039  0.039314431  0.049167013   0.12915183  0.029978223  0.029698652  0.038813616  0.098490492 
  218000   -1792230.3    13610.253   -256.87882    77.104551    89.033358    81.351231    1806.8692  0.041517458  0.040672142  0.047431701    0.1296213  0.031443198  0.031602242  0.038013268   0.10105871 
  219000     -1792185    13521.536    39.790894    77.104551    89.033358    81.351231    1795.0914  0.039657433  0.041061044  0.048099013   0.12881749  0.029441964  0.031434098   0.03784607  0.098722132 
  220000   -1792182.6    13595.245    292.06879    77.104551    89.033358    81.351231    1804.8769  0.041091156  0.040993233  0.049513408    0.1315978  0.031034529  0.031324416  0.039464241   0.10182319 
  221000   -1792135.6    13589.207   -88.465321    77.104551    89.033358    81.351231    1804.0753   0.04105588  0.040782154  0.048385515   0.13022355  0.030160501  0.030246332  0.038248185  0.098655018 
  222000   -1792197.2    13643.372    199.23269    77.104551    89.033358    81.351231    1811.2661  0.040497523  0.040975416  0.048340966   0.12981391  0.029690096  0.031005302  0.038217895  0.098913292 
  223000   -1792258.9    13542.959   -592.70655    77.104551    89.033358    81.351231    1797.9355  0.040819671  0.039673182  0.048903871   0.12939672  0.030322789  0.030123576  0.040097576   0.10054394 
  224000   -1792205.1    13579.191    473.70484    77.104551    89.033358    81.351231    1802.7456  0.040631859  0.040297143   0.04855587   0.12948487  0.030228822   0.03028194  0.038624424  0.099135187 
  225000   -1792138.9    13557.891   -218.65845    77.104551    89.033358    81.351231    1799.9178  0.041650293  0.040846595  0.050340516    0.1328374   0.03157573  0.030904058  0.038947913    0.1014277 
  226000   -1792194.5    13567.342    522.35626    77.104551    89.033358    81.351231    1801.1725  0.040006918  0.040960176  0.047803422   0.12877052  0.030742113  0.031371845  0.037861864  0.099975822 
  227000   -1792222.3     13574.45   -365.23483    77.104551    89.033358    81.351231    1802.1161  0.040383954  0.040283235  0.048336961   0.12900415  0.030528538  0.030382986  0.038425692  0.099337215 
  228000   -1792188.4     13514.82   -217.55995    77.104551    89.033358    81.351231    1794.1997  0.040643088  0.040538236  0.048657395   0.12983872  0.030743932  0.030756371  0.038879685   0.10037999 
  229000   -1792234.1    13616.418    20.958187    77.104551    89.033358    81.351231    1807.6878   0.04059323  0.041643888  0.048453434   0.13069055  0.030275781  0.031587716  0.038367877   0.10023137 
  230000   -1792224.5    13589.034   -46.546757    77.104551    89.033358    81.351231    1804.0523  0.040959324  0.041654215   0.04945875   0.13207229  0.031710676  0.031425089  0.039641021   0.10277679 
  231000   -1792250.5    13522.821   -366.19476    77.104551    89.033358    81.351231    1795.2619   0.04098121   0.04091151   0.04804614   0.12993886  0.030294169  0.030168769  0.037692444  0.098155383 
  232000   -1792144.4    13480.395     570.1294    77.104551    89.033358    81.351231    1789.6296  0.040996083  0.041816456  0.048478193   0.13129073  0.030982488  0.031528155  0.038245991   0.10075663 
  233000   -1792265.6    13565.046   -211.39353    77.104551    89.033358    81.351231    1800.8677  0.041784568   0.04150212  0.047644536   0.13093122   0.03224143  0.030992148  0.037792177   0.10102576 
  234000   -1792227.7    13543.713   -158.19493    77.104551    89.033358    81.351231    1798.0355  0.040847136  0.041331746  0.048376344   0.13055523  0.030913074  0.031342794  0.038035245   0.10029111 
  235000   -1792195.9    13619.964    -744.3161    77.104551    89.033358    81.351231    1808.1585  0.040956025  0.041017948  0.048024525    0.1299985  0.030514992  0.030780726  0.037798164  0.099093882 
  236000   -1792169.4    13579.066    26.712659    77.104551    89.033358    81.351231     1802.729  0.040749444   0.04031499  0.048572926   0.12963736  0.030983303  0.030953134  0.038637197   0.10057363 
  237000   -1792129.8    13543.957    554.70381    77.104551    89.033358    81.351231    1798.0679  0.041676879  0.041259042  0.049169008   0.13210493  0.031366461  0.031258492  0.038528926   0.10115388 
  238000   -1792239.1    13659.314    481.06135    77.104551    89.033358    81.351231    1813.3825  0.040986457  0.040915979  0.048226725   0.13012916  0.030902368  0.031208024  0.038333076   0.10044347 
  239000   -1792189.7    13553.182   -350.31707    77.104551    89.033358    81.351231    1799.2926  0.041208228  0.041404974  0.050259013   0.13287222  0.030735551  0.031486626  0.039727041   0.10194922 
  240000     -1792201    13464.976   -97.886972    77.104551    89.033358    81.351231    1787.5825  0.041455839   0.04082353  0.048417279   0.13069665  0.030933032  0.030895706  0.038644721   0.10047346 
  241000   -1792167.1     13644.48    155.27033    77.104551    89.033358    81.351231    1811.4131  0.041714635  0.041566321  0.046971864   0.13025282  0.030844486  0.031398699  0.038150259   0.10039344 
  242000   -1792236.3     13444.15   -1294.8691    77.104551    89.033358    81.351231    1784.8178  0.042052764   0.04073484  0.048748956   0.13153656  0.030584966  0.031196789  0.039404252   0.10118601 
  243000   -1792277.7    13538.363   -47.810846    77.104551    89.033358    81.351231    1797.3252  0.040296093  0.041384724  0.048059764   0.12974058  0.029798371  0.031490176  0.039007093   0.10029564 
  244000     -1792247    13559.715    332.90618    77.104551    89.033358    81.351231    1800.1599  0.041025327  0.041099066  0.049216242   0.13134063  0.030317526  0.031912937  0.040201468   0.10243193 
  245000   -1792267.5    13618.534    -25.50448    77.104551    89.033358    81.351231    1807.9686  0.040348756    0.0408221   0.04839051   0.12956137  0.030094326    0.0312273  0.039039221   0.10036085 
  246000   -1792193.9    13549.501   -25.465777    77.104551    89.033358    81.351231    1798.8039  0.040887976   0.04157671  0.047191097   0.12965578  0.030706976  0.032104463  0.037530102   0.10034154 
  247000   -1792288.4    13498.794   -693.49099    77.104551    89.033358    81.351231    1792.0722  0.040377789  0.040976222  0.048824075   0.13017809  0.030502204  0.030819179  0.039392549   0.10071393 
  248000   -1792133.8    13581.103    366.93592    77.104551    89.033358    81.351231    1802.9994  0.041859472  0.041871418  0.048128067   0.13185896  0.030847201  0.032030837  0.038402048   0.10128009 
  249000   -1792210.7    13566.805   -154.92173    77.104551    89.033358    81.351231    1801.1012  0.041739551  0.040852528  0.048154569   0.13074665  0.031209384  0.030978275  0.038871383   0.10105904 
  250000   -1792272.4     13592.13   -604.39828    77.104551    89.033358    81.351231    1804.4633  0.040558492  0.041036556  0.048806347    0.1304014  0.029889058  0.031014845  0.038788936  0.099692839 
  251000   -1792179.7    13570.417    189.62962    77.104551    89.033358    81.351231    1801.5807  0.041766729  0.041573392  0.048673183    0.1320133  0.030570649  0.031729823   0.03818835   0.10048882 
  252000     -1792171    13608.334    62.487736    77.104551    89.033358    81.351231    1806.6144  0.041964905  0.041209625  0.048956684   0.13213121  0.031095736   0.03077341  0.038733821   0.10060297 
  253000   -1792165.3    13581.531    239.98379    77.104551    89.033358    81.351231    1803.0562   0.04153833  0.040793055  0.049805706   0.13213709  0.031072305  0.031234536  0.039688191   0.10199503 
  254000   -1792225.5    13591.916    365.07908    77.104551    89.033358    81.351231    1804.4349  0.041062747  0.041770288  0.049286279   0.13211931   0.03004059  0.031819115   0.03878416   0.10064387 
  255000   -1792188.8      13597.1   -140.93496    77.104551    89.033358    81.351231    1805.1231  0.041177995   0.04080197  0.049318075   0.13129804  0.029996271  0.031409079  0.039156095   0.10056145 
  256000   -1792188.7    13539.101    509.64921    77.104551    89.033358    81.351231    1797.4232  0.041298789  0.041326502  0.049021583   0.13164687  0.030724668  0.031784957  0.038734703   0.10124433 
  257000   -1792156.1    13551.685    -21.20034    77.104551    89.033358    81.351231    1799.0938  0.040971911  0.042219817  0.049267441   0.13245917  0.030569011  0.031567996  0.038163918   0.10030093 
  258000   -1792253.3    13588.989   -557.07687    77.104551    89.033358    81.351231    1804.0463  0.041549622  0.042046932  0.049478618   0.13307517  0.030499323  0.031364085  0.038687304   0.10055071 
  259000   -1792267.3    13546.806   -932.79873    77.104551    89.033358    81.351231    1798.4461  0.041146186  0.040500934  0.048769691   0.13041681  0.030589531  0.030600694  0.038055086   0.09924531 
  260000   -1792268.9    13568.883    -345.9093    77.104551    89.033358    81.351231    1801.3771  0.041895736  0.041393882  0.047955798   0.13124541  0.030923767  0.031434803  0.037441763  0.099800333 
  261000   -1792258.3    13545.177   -14.365822    77.104551    89.033358    81.351231    1798.2299  0.041375369  0.041207598   0.04754598   0.13012895   0.03042277  0.030656159  0.036433692  0.097512621 
  262000   -1792177.8    13522.294    282.22212    77.104551    89.033358    81.351231     1795.192  0.041771684   0.04086322   0.04887129   0.13150619  0.031019474  0.030577959  0.038119961  0.099717393 
  263000   -1792177.1    13494.387    20.111705    77.104551    89.033358    81.351231    1791.4871  0.040807754  0.042101849  0.049287536   0.13219714   0.03069003  0.031495127   0.03799233   0.10017749 
  264000   -1792182.5    13583.777   -730.41389    77.104551    89.033358    81.351231    1803.3544  0.041652606  0.042693203  0.050145042   0.13449085  0.031482263  0.031626442  0.039766627   0.10287533 
  265000   -1792194.3     13556.79   -71.906983    77.104551    89.033358    81.351231    1799.7717  0.041600885  0.041437094  0.048701452   0.13173943  0.030894614  0.030623801  0.037706963  0.099225377 
  266000   -1792218.4    13518.209   -320.38603    77.104551    89.033358    81.351231    1794.6497  0.041501016  0.042746913    0.0498877   0.13413563  0.030677632  0.031199533  0.038742668   0.10061983 
  267000   -1792244.3    13537.508    109.86759    77.104551    89.033358    81.351231    1797.2118  0.041748998  0.041544667  0.049115043   0.13240871   0.03102345  0.030535771  0.038022095  0.099581316 
  268000   -1792256.9    13645.626   -481.23839    77.104551    89.033358    81.351231    1811.5653  0.041718849  0.041606284  0.048407186   0.13173232  0.030469546  0.031474397  0.037539072  0.099483015 
  269000   -1792211.2    13552.882   -482.98533    77.104551    89.033358    81.351231    1799.2528  0.041489016  0.040547325  0.049922952   0.13195929  0.030678026  0.030589206  0.039207254   0.10047449 
  270000   -1792211.1    13557.252    438.93189    77.104551    89.033358    81.351231    1799.8329  0.041592832  0.042025729  0.048448342    0.1320669  0.031449163  0.031408824  0.037829606   0.10068759 
  271000   -1792217.6    13573.762   -329.68958    77.104551    89.033358    81.351231    1802.0248  0.041327821  0.041592917   0.04878773   0.13170847  0.030416878    0.0306183  0.037472523  0.098507702 
  272000   -1792155.6    13565.594    -234.1052    77.104551    89.033358    81.351231    1800.9404  0.042609266  0.041881818  0.048535792   0.13302688   0.03277498  0.030681617   0.03750861   0.10096521 
  273000   -1792269.7    13572.351   -355.00655    77.104551    89.033358    81.351231    1801.8375  0.041340049  0.041913529  0.049077303   0.13233088  0.031499402  0.031277404  0.038992446   0.10176925 
  274000   -1792193.7    13515.437    -408.8442    77.104551    89.033358    81.351231    1794.2817  0.042534497   0.04072441  0.048367239   0.13162615  0.032085362  0.030464098  0.037812761   0.10036222 
  275000   -1792295.2    13511.516   -750.10218    77.104551    89.033358    81.351231    1793.7611  0.041844262  0.041005553    0.0505263   0.13337611  0.031528898   0.03147319  0.039596472   0.10259856 
  276000   -1792129.1    13605.702       494.61    77.104551    89.033358    81.351231    1806.2651  0.041911774  0.042336484  0.050618965   0.13486722  0.031187201  0.031946097  0.038640576   0.10177387 
  277000   -1792089.4    13545.723    49.229399    77.104551    89.033358    81.351231    1798.3024  0.042032044  0.041250764  0.049670033   0.13295284  0.031353285  0.031188998  0.038810866   0.10135315 
  278000     -1792219    13632.921    225.25474    77.104551    89.033358    81.351231    1809.8786  0.040892013   0.04119224  0.049293554   0.13137781  0.030360822  0.031135704   0.03880685   0.10030338 
  279000   -1792231.5    13580.887   -13.008302    77.104551    89.033358    81.351231    1802.9708  0.042079296  0.041778398  0.049904113   0.13376181  0.032561617  0.031439646   0.03873788   0.10273914 
  280000   -1792256.7    13587.609   -644.96129    77.104551    89.033358    81.351231    1803.8631  0.041635004  0.041936331  0.048870399   0.13244173  0.031084359  0.031312805  0.037363768  0.099760932 
  281000   -1792259.9    13533.536   -585.83504    77.104551    89.033358    81.351231    1796.6844  0.041629492  0.041602767  0.049691534   0.13292379  0.031131182  0.030661367  0.038135076  0.099927625 
  282000     -1792226     13558.49    371.42737    77.104551    89.033358    81.351231    1799.9974  0.041128774  0.042213128  0.048688869   0.13203077  0.030725302  0.031369178  0.038499419    0.1005939 
  283000   -1792251.2    13474.412   -754.49839    77.104551    89.033358    81.351231    1788.8353  0.041461346  0.041724626  0.049028966   0.13221494  0.031775365   0.03120501  0.038042794   0.10102317 
  284000   -1792214.1    13601.974   -153.22789    77.104551    89.033358    81.351231    1805.7702  0.043174089  0.041471951  0.050101646   0.13474769  0.032385149  0.030367859  0.039048349   0.10180136 
  285000   -1792284.7    13573.133    82.252629    77.104551    89.033358    81.351231    1801.9413  0.041731622  0.041191007  0.049940203   0.13286283  0.030923605  0.031027809  0.038298483    0.1002499 
  286000   -1792236.6    13670.906    154.02794    77.104551    89.033358    81.351231    1814.9215  0.043281408  0.040918806  0.050190513   0.13439073  0.032341864  0.030404487   0.03957681   0.10232316 
  287000   -1792141.1    13567.295    259.88591    77.104551    89.033358    81.351231    1801.1663  0.042460369  0.041659129  0.049431194   0.13355069  0.031639312  0.031203311  0.038110729   0.10095335 
  288000     -1792161    13567.509    505.10084    77.104551    89.033358    81.351231    1801.1947  0.041702922  0.041308278  0.048388544   0.13139974  0.030933248  0.030492483  0.037609032  0.099034763 
  289000   -1792207.7    13584.319   -138.35458    77.104551    89.033358    81.351231    1803.4263  0.042881897  0.041844801  0.049748012   0.13447471  0.031742048  0.031121624  0.038769204   0.10163288 
  290000   -1792088.3    13559.324    614.22481    77.104551    89.033358    81.351231    1800.1081  0.042428515  0.042193685  0.048674905    0.1332971  0.030472794   0.03078926  0.038081088  0.099343142 
  291000   -1792163.4    13545.011    137.59574    77.104551    89.033358    81.351231    1798.2078  0.043005612  0.040687028  0.049527491   0.13322013  0.031901045  0.030592452  0.039616495   0.10210999 
  292000   -1792257.8    13580.015   -275.98064    77.104551    89.033358    81.351231     1802.855  0.042537703  0.040222795  0.048497095   0.13125759  0.030853641  0.030401803  0.037345807  0.098601251 
  293000   -1792135.9    13511.684    23.304424    77.104551    89.033358    81.351231    1793.7835  0.043744798  0.041399667  0.049304583   0.13444905  0.030660073  0.030162608  0.039059444  0.099882125 
  294000   -1792200.9    13589.722    203.55627    77.104551    89.033358    81.351231    1804.1436  0.043297694  0.041898536  0.049518066    0.1347143   0.03178253  0.030951111  0.038829997   0.10156364 
  295000   -1792219.1    13530.339   -102.97671    77.104551    89.033358    81.351231      1796.26   0.04260437  0.042194544  0.049729793   0.13452871  0.030597233  0.030468186  0.038273908  0.099339327 
  296000   -1792189.9     13550.65     272.9542    77.104551    89.033358    81.351231    1798.9565  0.043742473   0.04334889  0.049674758   0.13676612   0.03190528  0.031400517  0.038877459   0.10218326 
  297000   -1792166.8     13538.57   -460.02336    77.104551    89.033358    81.351231    1797.3527  0.042640045  0.042838561  0.049227368   0.13470597   0.03136573  0.030892644  0.037853581   0.10011196 
  298000   -1792197.3    13601.798   -104.24896    77.104551    89.033358    81.351231    1805.7468  0.043448826   0.04225395  0.050665725    0.1363685  0.031590026  0.030581082   0.03848206   0.10065317 
  299000   -1792116.1    13491.256    349.22724    77.104551    89.033358    81.351231    1791.0714   0.04243349  0.042168591  0.048483313   0.13308539  0.030889149  0.031238489  0.037975014   0.10010265 
  300000   -1792191.7    13595.703    58.667163    77.104551    89.033358    81.351231    1804.9376  0.041428468  0.042115828  0.048714786   0.13225908  0.030748714  0.030493848  0.039154226   0.10039679 
  301000   -1792313.9    13606.945    -597.1891    77.104551    89.033358    81.351231    1806.4301  0.041824306  0.042228473  0.048975096   0.13302788  0.030879218  0.030515809  0.037780102  0.099175129 
  302000   -1792200.2    13588.878    388.79332    77.104551    89.033358    81.351231    1804.0316   0.04221268  0.041881033  0.049698773   0.13379249  0.031057143   0.02990565  0.038001078  0.098963871 
  303000   -1792236.2    13495.341   -83.748475    77.104551    89.033358    81.351231    1791.6138  0.042968316  0.041860125  0.049304602   0.13413304  0.032015611  0.031177814  0.038599786   0.10179321 
  304000   -1792151.3    13582.443    461.85691    77.104551    89.033358    81.351231    1803.1773  0.042336236  0.041425267  0.048885124   0.13264663  0.031174174  0.030144834  0.037494995  0.098814003 
  305000   -1792143.1    13540.748    514.76355    77.104551    89.033358    81.351231     1797.642  0.042305174  0.042396944  0.049269237   0.13397135  0.030807783  0.031025161  0.038411287   0.10024423 
  306000   -1792201.6    13553.135   -129.18711    77.104551    89.033358    81.351231    1799.2864   0.04267103  0.042010576  0.048691828   0.13337343  0.030774878   0.03065889  0.037764426  0.099198194 
  307000   -1792229.9    13562.529   -227.50145    77.104551    89.033358    81.351231    1800.5335   0.04258682  0.042683965  0.049912101   0.13518289  0.030823338  0.030742211  0.038572779   0.10013833 
  308000   -1792213.3     13578.72    -177.4844    77.104551    89.033358    81.351231     1802.683  0.043372985  0.042834623  0.049188826   0.13539643  0.031559733  0.030202734  0.039053131    0.1008156 
  309000   -1792216.7    13615.538   -223.90002    77.104551    89.033358    81.351231    1807.5709  0.041519433   0.04267247  0.050137983   0.13432989  0.029916395  0.029977387  0.038784974  0.098678756 
  310000   -1792153.5     13654.22    446.41595    77.104551    89.033358    81.351231    1812.7062  0.043664672  0.043788906  0.049298594   0.13675217  0.031540093  0.031306075  0.038308556   0.10115472 
  311000   -1792203.9    13629.045    81.182185    77.104551    89.033358    81.351231    1809.3641  0.042215748  0.042058864  0.049060229   0.13333484  0.030779876  0.030395101  0.038731996  0.099906973 
  312000   -1792295.9    13610.914   -453.54421    77.104551    89.033358    81.351231     1806.957  0.042209883   0.04234708  0.049051152   0.13360811  0.031106411  0.030298062  0.038453314  0.099857787 
  313000   -1792170.9    13584.617    142.31527    77.104551    89.033358    81.351231    1803.4659  0.041600167  0.042112482  0.048778439   0.13249109  0.030601173   0.03034832   0.03755428  0.098503773 
  314000   -1792271.6    13548.425   -121.25943    77.104551    89.033358    81.351231    1798.6611  0.041295821  0.041398755  0.049166751   0.13186133  0.030582839  0.030310496  0.038620469  0.099513805 
  315000   -1792231.6    13639.266    433.78141    77.104551    89.033358    81.351231     1810.721  0.041152505  0.040962051  0.050336689   0.13245125  0.029801951   0.03058411  0.038839706  0.099225766 
  316000   -1792238.4    13574.744   -289.09868    77.104551    89.033358    81.351231    1802.1552  0.041478004  0.041715209  0.050136446   0.13332966  0.029769173  0.030457924   0.03879082  0.099017917 
  317000   -1792266.4     13540.49   -564.08735    77.104551    89.033358    81.351231    1797.6077  0.042127893  0.042192072  0.049247446   0.13356741  0.030921387  0.031098046  0.038476585   0.10049602 
  318000   -1792276.5    13520.185   -322.57002    77.104551    89.033358    81.351231    1794.9121  0.041887997  0.041186602  0.049286254   0.13236085  0.031304107  0.029880777  0.038274697   0.09945958 
  319000   -1792136.5    13543.098    264.71676    77.104551    89.033358    81.351231    1797.9538  0.042291145  0.041517917    0.0487107   0.13251976  0.030431386  0.030896702  0.037990176  0.099318265 
  320000   -1792196.8    13565.182     14.73348    77.104551    89.033358    81.351231    1800.8857  0.042391244  0.041130935  0.049240286   0.13276247   0.03088779  0.030555258   0.03818326  0.099626308 
  321000     -1792262    13512.336   -799.74108    77.104551    89.033358    81.351231      1793.87  0.041263076  0.041062748    0.0493246   0.13165042  0.029626305  0.030183519  0.038079736   0.09788956 
  322000   -1792228.2     13543.65   -633.28967    77.104551    89.033358    81.351231    1798.0272  0.041746595  0.040980517   0.04987838   0.13260549  0.030666952  0.030173062  0.037917165   0.09875718 
  323000   -1792222.9    13618.662    286.15774    77.104551    89.033358    81.351231    1807.9857  0.042222141  0.040731946   0.04966747   0.13262156   0.03082853  0.030329675  0.037986355  0.099144559 
  324000     -1792164    13567.117     122.6517    77.104551    89.033358    81.351231    1801.1426  0.041807803  0.041276069  0.050000052   0.13308392  0.030667928  0.030778005  0.039506467    0.1009524 
  325000   -1792289.5    13499.265   -471.72525    77.104551    89.033358    81.351231    1792.1347  0.040922249  0.041527215  0.049658833    0.1321083  0.029897716  0.029929064  0.038728619  0.098555399 
  326000   -1792226.3     13544.22   -349.15884    77.104551    89.033358    81.351231    1798.1028  0.041908076   0.04186311  0.049570953   0.13334214  0.031718076  0.030674986  0.038468556   0.10086162 
  327000   -1792240.3    13514.884   -191.95714    77.104551    89.033358    81.351231    1794.2083  0.042026533   0.04270432  0.049434674   0.13416553  0.031402386   0.03183488  0.039108441   0.10234571 
  328000   -1792215.8    13524.118    422.55789    77.104551    89.033358    81.351231    1795.4341  0.041685005  0.042684031  0.049456799   0.13382583  0.030457436   0.03157595  0.038510253   0.10054364 
  329000   -1792279.5    13626.224   -714.50764    77.104551    89.033358    81.351231    1808.9895   0.04233965  0.041862567  0.048835728   0.13303795  0.031495997  0.030520853  0.037445299  0.099462149 
  330000   -1792168.2    13573.503    140.72342    77.104551    89.033358    81.351231    1801.9904  0.042482424  0.042923586  0.049268835   0.13467484  0.031144104  0.030960578  0.039001432   0.10110611 
  331000   -1792219.3    13660.363    95.268355    77.104551    89.033358    81.351231    1813.5217  0.042962356   0.04233911  0.049611406   0.13491287  0.031641025  0.030877543   0.03823687   0.10075544 
  332000   -1792136.8    13547.538    78.894432    77.104551    89.033358    81.351231    1798.5434  0.042367907   0.04212674   0.04947397   0.13396862  0.030929055    0.0307338  0.037431215  0.099094071 
  333000   -1792182.2    13528.257   -759.71919    77.104551    89.033358    81.351231    1795.9837  0.040960545  0.042238455  0.049113422   0.13231242  0.029904876  0.031198293  0.037830046  0.098933215 
  334000   -1792158.4    13516.375   -266.46183    77.104551    89.033358    81.351231    1794.4062  0.041780275  0.042292755  0.051055348   0.13512838  0.030977363  0.031492313  0.040158184   0.10262786 
  335000   -1792220.3     13590.06   -125.99936    77.104551    89.033358    81.351231    1804.1884   0.04150939  0.042417117  0.049454786   0.13338129  0.030746189  0.030410159  0.037549393  0.098705741 
  336000   -1792212.5    13560.218    401.49188    77.104551    89.033358    81.351231    1800.2267  0.042335746  0.041795466  0.050424893   0.13455611  0.031225412  0.030243711  0.038828506   0.10029763 
  337000   -1792241.1    13559.954    401.11062    77.104551    89.033358    81.351231    1800.1916  0.042932501  0.041824473  0.049902503   0.13465948  0.030659717  0.030560017  0.037567766    0.0987875 
  338000   -1792161.4    13540.971    95.697689    77.104551    89.033358    81.351231    1797.6716  0.043056218  0.042646216  0.050977228   0.13667966  0.031938343  0.031639594  0.038614563    0.1021925 
  339000   -1792189.4    13544.958    -118.4088    77.104551    89.033358    81.351231    1798.2009  0.042367862  0.041875291  0.050364164   0.13460732  0.031046462  0.030180662  0.038641126   0.09986825 
  340000   -1792243.7    13539.916   -638.42451    77.104551    89.033358    81.351231    1797.5314   0.04204935  0.043075978  0.050610478   0.13573581  0.030142424  0.031065981  0.039277078   0.10048548 
  341000   -1792210.9    13583.195   -179.39977    77.104551    89.033358    81.351231    1803.2771  0.043845022  0.042397307   0.05143255   0.13767488  0.031568565  0.031156568  0.039276186   0.10200132 
  342000   -1792241.9    13535.464   -139.17876    77.104551    89.033358    81.351231    1796.9404  0.042613663  0.042320142  0.049548592    0.1344824  0.030285751  0.030568873   0.03784403  0.098698655 
  343000   -1792229.4    13572.905    119.52428    77.104551    89.033358    81.351231     1801.911  0.043207836  0.042202139  0.051030067   0.13644004  0.031021989  0.030877842  0.038828629   0.10072846 
  344000   -1792167.1    13527.071     496.7214    77.104551    89.033358    81.351231    1795.8262  0.042659228  0.043026313   0.05027565   0.13596119  0.030904973  0.031115277  0.038852534   0.10087278 
  345000   -1792248.3    13532.027   -710.57227    77.104551    89.033358    81.351231    1796.4841  0.042250271  0.041999572  0.049435056    0.1336849  0.030632146  0.030559965  0.037990028  0.099182138 
  346000   -1792240.9    13477.756   -910.77071    77.104551    89.033358    81.351231    1789.2792  0.042215136   0.04276782  0.051363898   0.13634685   0.03052436     0.030684  0.039308393   0.10051675 
  347000   -1792238.8    13535.326   -685.05417    77.104551    89.033358    81.351231    1796.9221   0.04239696  0.042527453  0.049724349   0.13464876  0.030532075   0.03114302  0.038639479   0.10031457 
  348000   -1792275.9    13552.587    73.049044    77.104551    89.033358    81.351231    1799.2136  0.043123923   0.04264385  0.049250281   0.13501805  0.031032156  0.030426605  0.037793959  0.099252721 
  349000   -1792235.5    13461.859   -55.525889    77.104551    89.033358    81.351231    1787.1688   0.04205126  0.043003653  0.049811115   0.13486603   0.03071886  0.030723138  0.038057807  0.099499805 
  350000   -1792311.1     13575.99   -362.17102    77.104551    89.033358    81.351231    1802.3206  0.041341038   0.04150674  0.050060191   0.13290797  0.029603053    0.0296145  0.038258302  0.097475855 
  351000   -1792213.3    13559.182   -332.26011    77.104551    89.033358    81.351231    1800.0891  0.042580014  0.043200596  0.049885759   0.13566637  0.030866178  0.030995876  0.038028629  0.099890683 
  352000     -1792128    13642.007   0.74511784    77.104551    89.033358    81.351231    1811.0849  0.042947507  0.043895234  0.049253358    0.1360961  0.030516172  0.031032041  0.037793236  0.099341449 
  353000   -1792273.7    13521.952   -418.73722    77.104551    89.033358    81.351231    1795.1466  0.042693674  0.042801825  0.050587015   0.13608251  0.030952992  0.030778406  0.039227861   0.10095926 
  354000   -1792179.8     13631.04    533.41742    77.104551    89.033358    81.351231    1809.6288  0.042672659  0.044545818  0.051166513   0.13838499  0.030557531  0.031327502  0.039214509   0.10109954 
  355000   -1792264.3    13552.067   -713.51549    77.104551    89.033358    81.351231    1799.1446  0.042698472  0.043279947  0.049498758   0.13547718  0.030388263  0.030389641  0.037699971  0.098477875 
  356000   -1792298.5    13564.115   -281.45838    77.104551    89.033358    81.351231    1800.7441  0.042828486  0.044074628  0.051976627   0.13887974  0.031205277  0.031253049  0.039009301   0.10146763 
  357000     -1792226    13459.574   -942.05754    77.104551    89.033358    81.351231    1786.8655  0.043821438  0.043081055  0.049031288   0.13593378  0.031568931  0.030661908  0.037421201  0.099652039 
  358000   -1792246.6    13607.178   -375.79074    77.104551    89.033358    81.351231    1806.4611  0.043629886  0.043791786  0.049779236   0.13720091  0.030844112  0.030802949  0.037284222  0.098931283 
  359000   -1792231.7    13569.686   -360.63146    77.104551    89.033358    81.351231    1801.4836  0.042991274  0.043329689  0.050357085   0.13667805  0.030816217   0.03028808   0.03894237   0.10004667 
  360000   -1792245.8    13580.808   -549.39056    77.104551    89.033358    81.351231    1802.9603  0.042857905  0.042416378  0.049208605   0.13448289  0.030333548  0.029939017  0.037312578  0.097585143 
  361000   -1792185.6    13478.488   -257.26053    77.104551    89.033358    81.351231    1789.3764  0.043644127   0.04389434   0.05070767   0.13824614  0.031748099  0.031307298  0.038746738   0.10180214 
  362000   -1792301.8    13647.247   -64.349631    77.104551    89.033358    81.351231    1811.7805  0.041666417  0.044485785    0.0502749    0.1364271  0.029289237  0.031373595  0.037879228   0.09854206 
  363000   -1792181.4    13551.989   -282.28165    77.104551    89.033358    81.351231    1799.1342  0.042936085  0.043453076  0.049976059   0.13636522  0.031199557   0.03072359  0.037567046  0.099490193 
  364000   -1792146.4     13579.84    362.68718    77.104551    89.033358    81.351231    1802.8317  0.043443819  0.044182003  0.049990944   0.13761677  0.030773887  0.031554716  0.037153699  0.099482302 
  365000   -1792179.9    13562.256    298.58602    77.104551    89.033358    81.351231    1800.4973   0.04406864  0.043100387  0.050658837   0.13782787  0.031292141  0.030504761  0.038127225  0.099924126 
  366000   -1792183.1    13574.083    233.01327    77.104551    89.033358    81.351231    1802.0674  0.044518547  0.043969422  0.050915924   0.13940389  0.031700519  0.031013363  0.038736781   0.10145066 
  367000   -1792192.7     13570.53    405.52897    77.104551    89.033358    81.351231    1801.5957  0.043489159  0.042812536   0.05034806   0.13664975  0.030451909  0.030957828   0.03804123  0.099450967 
  368000   -1792284.8    13572.556   -204.73086    77.104551    89.033358    81.351231    1801.8646  0.043814194  0.043312694  0.050715334   0.13784222  0.030919289  0.031346984  0.038449865   0.10071614 
  369000   -1792195.7    13566.525   -109.67392    77.104551    89.033358    81.351231    1801.0641  0.043286518  0.043104909  0.049734625   0.13612605  0.030360444  0.030176944  0.036905918  0.097443306 
  370000   -1792221.6    13499.993   -191.65295    77.104551    89.033358    81.351231    1792.2313  0.044208857  0.042499232  0.050102725   0.13681081   0.03117009  0.030673845  0.037618036  0.099461972 
  371000   -1792171.2    13512.307    110.03502    77.104551    89.033358    81.351231    1793.8662  0.043662054  0.042825311  0.050776528   0.13726389  0.031036908  0.030487189  0.038655737   0.10017983 
  372000   -1792175.6    13591.306    45.542161    77.104551    89.033358    81.351231    1804.3539  0.043021281  0.042306316  0.050663454   0.13599105  0.030296699  0.030571907  0.038546184  0.099414791 
  373000     -1792142     13577.98     124.5149    77.104551    89.033358    81.351231    1802.5848  0.044460855  0.042915982  0.049744063    0.1371209  0.031694484  0.031011472  0.038195587   0.10090154 
  374000   -1792175.5    13596.284    223.77183    77.104551    89.033358    81.351231    1805.0147  0.042890789   0.04407539  0.051199983   0.13816616  0.030136453  0.031670719  0.039041041   0.10084821 
  375000   -1792252.2    13607.108    96.531001    77.104551    89.033358    81.351231    1806.4517  0.042739992  0.043033343  0.050075975   0.13584931     0.029941  0.030436388  0.037471899  0.097849287 
  376000   -1792288.1     13551.36   -820.46606    77.104551    89.033358    81.351231    1799.0507  0.044278831  0.043038429  0.049680514   0.13699777  0.030806745  0.030788837  0.037509141  0.099104723 
  377000   -1792166.1     13593.46   -465.94354    77.104551    89.033358    81.351231    1804.6399  0.043690384  0.043026069  0.050218153   0.13693461  0.030887303  0.030757244  0.038476847   0.10012139 
  378000   -1792198.9    13535.831    742.26808    77.104551    89.033358    81.351231    1796.9892  0.043061134  0.043703582  0.050307724   0.13707244  0.030716046  0.031676452  0.038104666   0.10049716 
[...]
  907000   -1792130.7    13582.676    364.14846    77.104551    89.033358    81.351231    1803.2082  0.050831289  0.049988888  0.058816893   0.15963707  0.034376415  0.033939367  0.041636496   0.10995228 
  908000   -1792251.8    13540.827   -318.14182    77.104551    89.033358    81.351231    1797.6524  0.048992062  0.050072704  0.056207823   0.15527259  0.033006206  0.034112304  0.039781274   0.10689978 
  909000   -1792220.8    13581.855   -36.394014    77.104551    89.033358    81.351231    1803.0992  0.049380636  0.050690144  0.056462791   0.15653357  0.033398905  0.034266161  0.040325099   0.10799016 
  910000   -1792214.7    13489.859   -199.39809    77.104551    89.033358    81.351231     1790.886  0.049921674   0.05122466  0.058766659   0.15991299  0.033529084  0.034271515  0.041499528   0.10930013 
  911000   -1792212.6    13633.062   -31.941887    77.104551    89.033358    81.351231    1809.8973  0.050159679  0.050653233  0.056027997   0.15684091  0.033410827  0.034438174  0.039475967   0.10732497 
  912000   -1792198.7    13582.226   -36.474149    77.104551    89.033358    81.351231    1803.1484  0.049868519   0.05214013  0.057273702   0.15928235  0.033029542  0.034133183  0.040411144   0.10757387 
  913000   -1792245.7    13515.699   -219.80013    77.104551    89.033358    81.351231    1794.3165  0.048988551   0.05055173   0.05740683   0.15694711  0.032791613  0.033514162  0.040452132   0.10675791 
  914000   -1792198.7    13557.033   -23.407611    77.104551    89.033358    81.351231    1799.8039  0.050250532  0.050648378  0.057416926   0.15831584   0.03319079  0.033860218  0.040696978   0.10774799 
  915000   -1792252.5    13508.396   -373.57716    77.104551    89.033358    81.351231     1793.347  0.049957476  0.051159139  0.057396272   0.15851289  0.033708717   0.03375626  0.039998804   0.10746378 
  916000     -1792185    13483.261    83.807725    77.104551    89.033358    81.351231    1790.0101  0.049855571  0.050284745  0.056699526   0.15683984   0.03363387  0.032919037  0.040237113   0.10679002 
  917000   -1792208.3    13537.632   -350.83252    77.104551    89.033358    81.351231    1797.2282  0.051094144  0.050702601  0.057988217   0.15978496  0.034177533  0.033704174  0.041275083   0.10915679 
  918000   -1792223.9    13552.435    349.50991    77.104551    89.033358    81.351231    1799.1935  0.050855412  0.051416105   0.05862564   0.16089716  0.033490971  0.034223041  0.041144453   0.10885846 
  919000   -1792234.1    13456.879   -815.63204    77.104551    89.033358    81.351231    1786.5076  0.049402048  0.050547895  0.057360184   0.15731013  0.032669154  0.033044265   0.04097534   0.10668876 
  920000     -1792185    13472.445   -71.442771    77.104551    89.033358    81.351231    1788.5741  0.051207608  0.051185324  0.057153563   0.15954649  0.033130986   0.03404676  0.041055576   0.10823332 
  921000   -1792224.3    13621.035   -235.14582    77.104551    89.033358    81.351231    1808.3007  0.051105809  0.051107908  0.056619394   0.15883311  0.033596095  0.034063516  0.040072142   0.10773175 
  922000   -1792218.2    13535.207   -181.28542    77.104551    89.033358    81.351231    1796.9063  0.051046965  0.050906222  0.058105587   0.16005877  0.034278669  0.034173807    0.0414759   0.10992838 
  923000   -1792275.1     13551.58   -553.94922    77.104551    89.033358    81.351231    1799.0799  0.048773263  0.051631126  0.056876267   0.15728066  0.032922601  0.034964708  0.040360083   0.10824739 
  924000   -1792222.9    13571.039   -296.71456    77.104551    89.033358    81.351231    1801.6633  0.051934214   0.05062242  0.057940838   0.16049747  0.034009188  0.034274896  0.040862471   0.10914656 
  925000   -1792231.9     13536.19   -229.45492    77.104551    89.033358    81.351231    1797.0368  0.050133095  0.050665116  0.057498921   0.15829713  0.032915574  0.033536484  0.039812636   0.10626469 
  926000   -1792179.6    13566.713    272.86994    77.104551    89.033358    81.351231     1801.089  0.050123613  0.051275285  0.057564663   0.15896356   0.03275116  0.034367559   0.04089012   0.10800884 
  927000   -1792191.3    13535.177    49.704071    77.104551    89.033358    81.351231    1796.9024   0.05121677  0.050270311  0.057620292   0.15910737  0.033952731  0.033894215  0.041837184   0.10968413 
  928000   -1792182.5    13616.715   -383.75451    77.104551    89.033358    81.351231    1807.7272  0.050396384  0.050890523   0.05609299    0.1573799  0.033451061  0.033685681  0.040019427   0.10715617 
  929000   -1792142.6    13593.762    624.49322    77.104551    89.033358    81.351231    1804.6799  0.051330854  0.050624356   0.05839242   0.16034763  0.033934631  0.034066361  0.041640057   0.10964105 
  930000   -1792244.6    13636.017   -321.47546    77.104551    89.033358    81.351231    1810.2897  0.051081387  0.049477729  0.056845843   0.15740496  0.033590912  0.033006895  0.040629448   0.10722726 
  931000     -1792203    13552.107   -139.07317    77.104551    89.033358    81.351231    1799.1499   0.05031812  0.051151133   0.05786495    0.1593342   0.03382805   0.03435488  0.040782627   0.10896556 
  932000   -1792248.8    13607.674   -359.84647    77.104551    89.033358    81.351231    1806.5268    0.0500116  0.050039783  0.057375359   0.15742674  0.033995602  0.033693762  0.041312205   0.10900157 
  933000   -1792235.2    13562.477   -406.54738    77.104551    89.033358    81.351231    1800.5266  0.049332508  0.050885772  0.056029594   0.15624787  0.032673013  0.034769251  0.039741704   0.10718397 
  934000     -1792337    13570.936   -721.04913    77.104551    89.033358    81.351231    1801.6496  0.049868156  0.049577383  0.056786932   0.15623247  0.033104737  0.033899318   0.04101876   0.10802281 
  935000   -1792207.4    13515.811    147.55348    77.104551    89.033358    81.351231    1794.3314  0.050156301  0.050962853  0.056702599   0.15782175  0.033708541   0.03445782  0.040685337    0.1088517 
  936000   -1792256.5    13662.225   -807.24297    77.104551    89.033358    81.351231     1813.769    0.0497589  0.051852635  0.057092339   0.15870387   0.03342962  0.034315971  0.040755057   0.10850065 
  937000     -1792125    13447.181    215.20714    77.104551    89.033358    81.351231    1785.2202  0.049878016  0.050786792   0.05772011   0.15838492  0.032902654  0.033728461  0.041517079   0.10814819 
  938000   -1792118.5    13569.726    414.06989    77.104551    89.033358    81.351231     1801.489  0.049657325  0.051205892  0.057705685    0.1585689  0.033197608   0.03465314   0.04174792   0.10959867 
  939000   -1792145.9    13566.627    317.08698    77.104551    89.033358    81.351231    1801.0775  0.050237754  0.051412769  0.057212377    0.1588629  0.033403892   0.03475208    0.0410403   0.10919627 
  940000   -1792247.3    13644.619   -204.34669    77.104551    89.033358    81.351231    1811.4316  0.050626413  0.050997749  0.056771548   0.15839571  0.033661574   0.03404879  0.040061098   0.10777146 
  941000   -1792094.2    13491.003    180.35021    77.104551    89.033358    81.351231    1791.0379  0.049762386  0.049704688  0.057029826    0.1564969  0.033339896  0.033378732  0.040611681   0.10733031 
  942000   -1792283.9    13591.321   -567.20127    77.104551    89.033358    81.351231    1804.3559  0.048904639  0.050009708  0.057303611   0.15621796  0.033097824  0.033984826  0.040917326   0.10799998 
  943000   -1792282.6    13532.738    -784.6393    77.104551    89.033358    81.351231    1796.5785  0.049540979   0.05075798   0.05751837   0.15781733  0.033319467  0.034422794  0.041518068   0.10926033 
  944000   -1792261.5    13463.155   -653.77157    77.104551    89.033358    81.351231    1787.3408  0.049709486  0.050817303  0.057134095   0.15766088   0.03408579  0.034488991   0.04043523   0.10901001 
  945000   -1792203.6    13580.094   -259.85914    77.104551    89.033358    81.351231    1802.8654  0.049748542  0.050980843  0.059635871   0.16036526   0.03348304  0.034187525  0.042685135    0.1103557 
  946000   -1792215.6    13563.764   -206.53269    77.104551    89.033358    81.351231    1800.6975  0.049319522   0.05115009  0.058028723   0.15849833  0.032638903  0.034425365  0.041775816   0.10884008 
  947000     -1792176    13504.264   -68.942282    77.104551    89.033358    81.351231    1792.7984   0.05119549  0.051090083  0.057414389   0.15969996   0.03428026  0.034093539   0.04172552   0.11009932 
  948000   -1792311.6    13559.318   -747.44947    77.104551    89.033358    81.351231    1800.1072  0.050648114  0.051258265  0.058068857   0.15997524  0.034030394  0.034637532  0.041586462   0.11025439 
  949000   -1792195.9    13493.327   -395.30628    77.104551    89.033358    81.351231    1791.3464   0.05045008   0.05133388  0.056308496   0.15809245  0.032991841  0.034774045  0.040584022   0.10834991 
  950000   -1792227.6    13560.833   -708.84989    77.104551    89.033358    81.351231    1800.3084    0.0514057  0.050996997   0.05760431   0.16000701  0.034420519  0.034527951  0.041670153   0.11061862 
  951000   -1792173.8     13629.06    278.36208    77.104551    89.033358    81.351231    1809.3661  0.049849644  0.051388708  0.058267324   0.15950568  0.032967985  0.034420415  0.040686958   0.10807536 
  952000   -1792216.5    13508.523   -480.46755    77.104551    89.033358    81.351231    1793.3638  0.049916061  0.050206974  0.058186602   0.15830964  0.033276263    0.0348774  0.041972695   0.11012636 
  953000   -1792270.7    13554.845   -564.67812    77.104551    89.033358    81.351231    1799.5135   0.05015893  0.050161997  0.056938196   0.15725912    0.0340301   0.03432585  0.040628278   0.10898423 
  954000   -1792206.5    13543.339    88.592523    77.104551    89.033358    81.351231    1797.9859  0.050315213  0.050692183  0.058633029   0.15964042  0.033372105  0.034134201  0.041954787   0.10946109 
  955000   -1792219.2    13585.916    186.29247    77.104551    89.033358    81.351231    1803.6383  0.050592014   0.05130128  0.057857256   0.15975055  0.033178645  0.035481284  0.041099532   0.10975946 
  956000   -1792227.5    13490.482   -803.38309    77.104551    89.033358    81.351231    1790.9687   0.05030276  0.050690298  0.057059367   0.15805242  0.033461495  0.034335208  0.039975499    0.1077722 
  957000   -1792219.7     13547.03   -426.07903    77.104551    89.033358    81.351231    1798.4759  0.050545599  0.050409449  0.058097743   0.15905279  0.033042911  0.033612148  0.041652137    0.1083072 
  958000   -1792198.7    13532.352   -284.46373    77.104551    89.033358    81.351231    1796.5273  0.050022773  0.050637123  0.057995949   0.15865585  0.033232584  0.033982013  0.041911058   0.10912565 
  959000   -1792176.6    13571.144    162.46912    77.104551    89.033358    81.351231    1801.6772  0.050458063  0.050639756  0.058000652   0.15909847  0.034242962  0.034327452  0.040500452   0.10907087 
  960000   -1792210.2    13572.298   -85.502251    77.104551    89.033358    81.351231    1801.8304  0.049645345  0.050737365  0.058134715   0.15851743   0.03325937  0.034748917  0.041649785   0.10965807 
  961000   -1792239.4    13500.545   -398.55578    77.104551    89.033358    81.351231    1792.3046  0.049732289  0.051808499  0.057646036   0.15918682  0.033042306  0.034625529  0.040784707   0.10845254 
  962000   -1792219.2    13606.903   -496.78398    77.104551    89.033358    81.351231    1806.4246  0.050578893  0.050529992  0.056648251   0.15775714  0.034113713  0.034597969  0.040597561   0.10930924 
  963000   -1792200.3    13495.484    255.02039    77.104551    89.033358    81.351231    1791.6328  0.049211177  0.051194032  0.058274205   0.15867941  0.033256898  0.035007041  0.042370936   0.11063488 
  964000   -1792147.2    13587.542    294.36852    77.104551    89.033358    81.351231    1803.8542  0.049874635  0.051081072  0.058350607   0.15930631  0.034057465  0.034610528  0.041038941   0.10970693 
  965000   -1792179.8     13471.53   -101.31438    77.104551    89.033358    81.351231    1788.4527  0.050388665  0.051255421  0.057162364   0.15880645  0.034424329   0.03473151   0.04137546    0.1105313 
  966000     -1792184    13533.702   -388.34782    77.104551    89.033358    81.351231    1796.7065  0.050266679  0.052403469  0.057267018   0.15993717  0.033690396  0.035241194  0.040416481   0.10934807 
  967000   -1792215.7    13525.273   -398.20282    77.104551    89.033358    81.351231    1795.5875  0.049467548  0.051222628  0.058080714   0.15877089  0.033718481  0.034675994  0.041899122    0.1102936 
  968000   -1792190.9    13604.796    57.035728    77.104551    89.033358    81.351231    1806.1448  0.049246678  0.051307744  0.058330265   0.15888469  0.032348198  0.034699241  0.041522414   0.10856985 
  969000   -1792271.4    13524.213    -740.5514    77.104551    89.033358    81.351231    1795.4467  0.049764036  0.051701684  0.057331058   0.15879678  0.033366061  0.035562498  0.040213706   0.10914227 
  970000   -1792173.2    13526.186   -171.52276    77.104551    89.033358    81.351231    1795.7087  0.050169041  0.051359135  0.057291692   0.15881987  0.033437549  0.034204838  0.040374317    0.1080167 
  971000     -1792171    13518.948    51.752233    77.104551    89.033358    81.351231    1794.7478  0.050418886  0.051324873  0.056838881   0.15858264  0.034211031  0.034034781  0.040944371   0.10919018 
  972000   -1792287.7    13555.281   -651.40365    77.104551    89.033358    81.351231    1799.5713  0.051076701  0.052164373  0.056772596   0.16001367  0.034081165  0.035124152  0.040151907   0.10935722 
  973000   -1792160.8    13555.968   -183.95367    77.104551    89.033358    81.351231    1799.6625  0.049674593  0.051934913  0.057781663   0.15939117  0.033395957  0.034988981   0.04172785   0.11011279 
  974000   -1792303.1    13576.579   -1477.6858    77.104551    89.033358    81.351231    1802.3988  0.050980332  0.051817466  0.057631262   0.16042906  0.033878667  0.034459967  0.040434525   0.10877316 
  975000   -1792241.5     13587.53   -141.54792    77.104551    89.033358    81.351231    1803.8526  0.051261518  0.051083983  0.057534483   0.15987998  0.034466398  0.034625302  0.040673172   0.10976487 
  976000     -1792231    13464.013   -687.43445    77.104551    89.033358    81.351231    1787.4547  0.049387085  0.052469913  0.057461214   0.15931821   0.03307582  0.035032294  0.040300167   0.10840828 
  977000   -1792128.7    13569.172        599.2    77.104551    89.033358    81.351231    1801.4155  0.050188907  0.050646791  0.056938784   0.15777448  0.034122226  0.034673941  0.039990719   0.10878689 
  978000   -1792257.7     13517.11   -271.68217    77.104551    89.033358    81.351231    1794.5038  0.049920114  0.051258172  0.057603873   0.15878216  0.033248145  0.034680658  0.041433991   0.10936279 
  979000   -1792205.1    13540.325   -127.51442    77.104551    89.033358    81.351231    1797.5858  0.050888383  0.051835951  0.058110662     0.160835  0.033752357  0.034128534  0.040643705    0.1085246 
  980000   -1792127.7     13557.86    552.12977    77.104551    89.033358    81.351231    1799.9137  0.051835557  0.052156607    0.0575514   0.16154356  0.035382055  0.035714387  0.041132132   0.11222857 
  981000   -1792269.6    13613.733   -923.81919    77.104551    89.033358    81.351231    1807.3312  0.049410091  0.051299304  0.056237582   0.15694698  0.032883774  0.034413034  0.040332662   0.10762947 
  982000     -1792170    13593.462   -24.050598    77.104551    89.033358    81.351231    1804.6401  0.050351331  0.052127083   0.05782407   0.16030248   0.03295076   0.03472585   0.04177859    0.1094552 
  983000   -1792267.8    13655.333   -296.66432    77.104551    89.033358    81.351231     1812.854  0.050867419  0.050891262  0.057623883   0.15938256  0.033849708  0.033742143    0.0403428   0.10793465 
  984000     -1792209    13544.269   -474.70918    77.104551    89.033358    81.351231    1798.1093  0.050924996  0.051356615  0.056224648   0.15850626  0.034279636  0.034409834  0.040393609   0.10908308 
  985000   -1792205.1    13604.504   -236.25313    77.104551    89.033358    81.351231    1806.1061  0.050622038  0.052305364  0.059834683   0.16276208  0.034209475  0.034971492  0.042727535    0.1119085 
  986000   -1792259.4    13562.583   -576.30416    77.104551    89.033358    81.351231    1800.5407  0.050737751  0.051114673  0.057585809   0.15943823   0.03300256  0.034245882  0.040781852   0.10803029 
  987000   -1792123.7    13605.498    538.87206    77.104551    89.033358    81.351231    1806.2381  0.052439073  0.051898695  0.057806948   0.16214472  0.034799983  0.034420447  0.040932768    0.1101532 
  988000   -1792226.9    13522.099   -411.35252    77.104551    89.033358    81.351231    1795.1661  0.050997587  0.051313764  0.058253957   0.16056531  0.034090506   0.03385144  0.041618832   0.10956078 
  989000   -1792320.3    13605.724   -672.56122    77.104551    89.033358    81.351231     1806.268  0.050595732  0.052931327  0.057347952   0.16087501  0.033918063  0.034692467   0.03974905   0.10835958 
  990000   -1792212.5     13620.84   -121.13865    77.104551    89.033358    81.351231    1808.2748  0.051531432  0.052343415  0.058672429   0.16254728  0.035597312  0.034499647  0.042183709   0.11228067 
  991000   -1792195.6    13580.224    79.842845    77.104551    89.033358    81.351231    1802.8827  0.050249808   0.05176633  0.057804443   0.15982058  0.034007757  0.034293222     0.040454   0.10875498 
  992000   -1792198.7    13550.931  -0.35448413    77.104551    89.033358    81.351231    1798.9938  0.050921998  0.052083399   0.05767094   0.16067634  0.034105728  0.034331797  0.040906801   0.10934433 
  993000   -1792133.7    13572.393   -312.51951    77.104551    89.033358    81.351231     1801.843  0.051155794  0.052291835  0.057665655   0.16111328  0.034188938  0.034580958  0.039901533   0.10867143 
  994000   -1792208.5     13596.43    -151.5623    77.104551    89.033358    81.351231    1805.0342  0.050542384  0.051668466  0.057967089   0.16017794  0.033659262  0.034112206  0.041130745   0.10890221 
  995000     -1792256    13560.725   -679.40498    77.104551    89.033358    81.351231     1800.294   0.05139607  0.051954647  0.058734355   0.16208507  0.034443868  0.033917306  0.041660035   0.11002121 
  996000   -1792262.5    13583.335   -178.16776    77.104551    89.033358    81.351231    1803.2957  0.050269755  0.051927964  0.058374658   0.16057238  0.033193516  0.035148972  0.040574491   0.10891698 
  997000   -1792146.5    13609.208    55.521839    77.104551    89.033358    81.351231    1806.7305  0.051445529  0.052026937  0.060388721   0.16386119  0.034820341  0.034730747  0.043565891   0.11311698 
  998000     -1792194     13533.51   -101.95175    77.104551    89.033358    81.351231     1796.681  0.050300091  0.052252208  0.057534015   0.16008631  0.033608092   0.03468427  0.040550935    0.1088433 
  999000   -1792193.3    13521.592   -276.72065    77.104551    89.033358    81.351231    1795.0989  0.051006403    0.0515843  0.058720099    0.1613108  0.033843076  0.034623625  0.040346146   0.10881285 
 1000000   -1792289.6    13615.267   -819.47349    77.104551    89.033358    81.351231     1807.535  0.050234833  0.051057257  0.058889685   0.16018177    0.0323786  0.033932331  0.041107596   0.10741853 
Loop time of 228425 on 7 procs for 1000000 steps with 58275 atoms

Pair  time (%) = 179374 (78.5264)
Kspce time (%) = 43311.2 (18.9608)
Neigh time (%) = 4036.31 (1.76701)
Comm  time (%) = 1220.34 (0.534241)
Outpt time (%) = 0.423592 (0.00018544)
Other time (%) = 482.936 (0.21142)

Nlocal:    8325 ave 8444 max 8180 min
Histogram: 1 2 0 0 0 0 0 0 2 2
Nghost:    32378.3 ave 32810 max 32103 min
Histogram: 4 0 0 0 0 0 0 1 1 1
Neighs:    3.18278e+06 ave 3.2279e+06 max 3.12578e+06 min
Histogram: 1 2 0 0 0 0 0 1 0 3

Total # of neighbors = 22279448
Ave neighs/atom = 382.316
Neighbor list builds = 31682
Dangerous builds = 0
